/*--------------------------------*- C++ -*----------------------------------*\
| =========                 |                                                 |
| \\      /  F ield         | OpenFOAM: The Open Source CFD Toolbox           |
|  \\    /   O peration     | Version:  5.0                                   |
|   \\  /    A nd           | Web:      www.OpenFOAM.org                      |
|    \\/     M anipulation  |                                                 |
\*---------------------------------------------------------------------------*/
FoamFile
{
    version     2.0;
    format      ascii;
    class       volScalarField;
    location    "0.5";
    object      p;
}
// * * * * * * * * * * * * * * * * * * * * * * * * * * * * * * * * * * * * * //

dimensions      [0 2 -2 0 0 0 0];

internalField   nonuniform List<scalar> 
400
(
1.4885e-07
-0.00116995
-0.00253267
-0.0035517
-0.00394429
-0.00358902
-0.00246711
-0.000624188
0.00184305
0.00478403
0.00798825
0.0111869
0.014071
0.0163287
0.0177012
0.0180475
0.0174085
0.0160495
0.0144419
0.0133076
0.00115831
-5.37984e-05
-0.0011117
-0.00179936
-0.00200622
-0.00165124
-0.00071308
0.000781887
0.00276676
0.00512952
0.00770736
0.0102892
0.0126295
0.0144809
0.0156393
0.0159959
0.0155844
0.0145998
0.0133424
0.0121924
0.00260102
0.000927117
-0.000202403
-0.00081774
-0.000985444
-0.000675139
0.000122761
0.00138984
0.00308169
0.00511703
0.00736686
0.00965194
0.0117538
0.0134426
0.0145187
0.0148631
0.0144842
0.0135251
0.0121389
0.0105016
0.00378481
0.001502
0.000123195
-0.000565567
-0.000785924
-0.000553525
0.000127715
0.00124458
0.00277239
0.00465617
0.00679182
0.0090166
0.0111148
0.0128426
0.0139699
0.0143357
0.0139063
0.0127832
0.011016
0.0086877
0.00431054
0.00141771
-0.000250839
-0.00106312
-0.00137537
-0.0012399
-0.000668367
0.000335228
0.00176867
0.00360444
0.00576212
0.00809052
0.0103658
0.0123119
0.0136442
0.0141325
0.0136804
0.0123435
0.0100877
0.00694872
0.00385772
0.000394152
-0.00156389
-0.00251857
-0.00294313
-0.00291723
-0.00245285
-0.00153819
-0.000147303
0.00172499
0.0040261
0.00661774
0.00926365
0.0116429
0.0133919
0.0141795
0.0138145
0.0122884
0.00948123
0.0054092
0.0021548
-0.00182746
-0.00405702
-0.00515729
-0.0057056
-0.00580209
-0.00545208
-0.00462039
-0.0032443
-0.00127602
0.00127059
0.00428004
0.00750788
0.0105812
0.0130345
0.0143951
0.0143291
0.0127211
0.00933376
0.0041694
-0.0010403
-0.00548444
-0.00795675
-0.00919466
-0.00987252
-0.010108
-0.00989485
-0.00916673
-0.00781323
-0.00572886
-0.00286971
0.000692339
0.00472111
0.00879586
0.0123301
0.0146621
0.0152451
0.0137816
0.00983855
0.00338173
-0.00594658
-0.0107971
-0.0134747
-0.0148291
-0.0156331
-0.0160245
-0.0159844
-0.0154086
-0.0141268
-0.0119563
-0.00876768
-0.0045587
0.000478178
0.0058956
0.01098
0.0148319
0.0165998
0.0156816
0.0113046
0.00333009
-0.0127598
-0.0179699
-0.0207999
-0.0222216
-0.0231217
-0.0236706
-0.02384
-0.0234846
-0.0223617
-0.0201898
-0.0167216
-0.0118331
-0.00562397
0.00147991
0.0086584
0.01474
0.0184618
0.0187417
0.0142267
0.00452499
-0.0216583
-0.0271998
-0.0300934
-0.0314696
-0.0323727
-0.0330314
-0.0334186
-0.0333463
-0.0324891
-0.0304445
-0.0268119
-0.0212941
-0.0138285
-0.00474198
0.00510118
0.0142628
0.0209734
0.0234461
0.0193801
0.00783977
-0.0328354
-0.0387051
-0.0414904
-0.0425789
-0.0432682
-0.043888
-0.0444273
-0.0446554
-0.0441529
-0.0423762
-0.0387383
-0.0327175
-0.024013
-0.0127485
0.000282055
0.0134514
0.0244454
0.030532
0.0279561
0.0147234
-0.0465924
-0.0527918
-0.0551142
-0.0554345
-0.0554828
-0.055749
-0.0562484
-0.0566994
-0.0565725
-0.0551623
-0.0516687
-0.0453042
-0.0354622
-0.0219504
-0.00533126
0.0127545
0.0295311
0.0411385
0.0417654
0.0275528
-0.0635692
-0.0699853
-0.0710977
-0.0697612
-0.0684287
-0.0678007
-0.0679018
-0.0683669
-0.0685238
-0.0674781
-0.0641951
-0.0575974
-0.0467307
-0.0309907
-0.0105295
0.0132725
0.0374489
0.0570123
0.0635426
0.0502375
-0.0852759
-0.0912579
-0.0895768
-0.0850466
-0.0811911
-0.078883
-0.0780665
-0.0782123
-0.0784418
-0.0776277
-0.0744816
-0.0676289
-0.0557518
-0.0377848
-0.0133157
0.0168705
0.0501155
0.0806668
0.0973002
0.0891177
-0.115209
-0.118378
-0.110613
-0.100411
-0.0924631
-0.087508
-0.0851817
-0.0846307
-0.0846676
-0.0838594
-0.080647
-0.0733655
-0.0603142
-0.0399804
-0.0112766
0.0259404
0.070013
0.115303
0.148442
0.153729
-0.161197
-0.154328
-0.134132
-0.11465
-0.100679
-0.0920753
-0.0877451
-0.0862395
-0.0858866
-0.0848969
-0.0814004
-0.0734434
-0.058975
-0.03599
-0.00263012
0.0425026
0.0995158
0.164269
0.223729
0.258125
-0.243108
-0.202992
-0.158703
-0.125554
-0.103701
-0.090818
-0.0844731
-0.0821934
-0.0816293
-0.0805746
-0.0768704
-0.068309
-0.0524955
-0.0269183
0.0112543
0.065158
0.137632
0.228132
0.331701
0.432074
-0.41895
-0.264462
-0.17118
-0.121812
-0.0935581
-0.0784349
-0.0720995
-0.070775
-0.0713938
-0.0714514
-0.0686617
-0.0607063
-0.0450324
-0.0187473
0.0219708
0.0824607
0.170192
0.294373
0.47598
0.741789
-0.764097
-0.324094
-0.142113
-0.0833941
-0.0585972
-0.0482873
-0.0470219
-0.0503853
-0.0550569
-0.0586293
-0.0590143
-0.054106
-0.0416383
-0.0185472
0.01904
0.0776677
0.170334
0.325578
0.624189
1.18317
)
;

boundaryField
{
    movingWall
    {
        type            zeroGradient;
    }
    fixedWalls
    {
        type            zeroGradient;
    }
    frontAndBack
    {
        type            empty;
    }
}


// ************************************************************************* //
