/*--------------------------------*- C++ -*----------------------------------*\
| =========                 |                                                 |
| \\      /  F ield         | OpenFOAM: The Open Source CFD Toolbox           |
|  \\    /   O peration     | Version:  5.0                                   |
|   \\  /    A nd           | Web:      www.OpenFOAM.org                      |
|    \\/     M anipulation  |                                                 |
\*---------------------------------------------------------------------------*/
FoamFile
{
    version     2.0;
    format      ascii;
    class       surfaceScalarField;
    location    "0.5";
    object      phi;
}
// * * * * * * * * * * * * * * * * * * * * * * * * * * * * * * * * * * * * * //

dimensions      [0 3 -1 0 0 0 0];

internalField   nonuniform List<scalar> 
760
(
1.2378e-08
-1.23832e-08
-2.62449e-08
3.8624e-08
-1.1724e-07
9.09945e-08
-2.43532e-07
1.26292e-07
-3.87059e-07
1.43527e-07
-5.31994e-07
1.44935e-07
-6.64886e-07
1.32892e-07
-7.74156e-07
1.0927e-07
-8.49748e-07
7.55921e-08
-8.8336e-07
3.36114e-08
-8.69314e-07
-1.40452e-08
-8.05917e-07
-6.33972e-08
-6.96855e-07
-1.09062e-07
-5.52213e-07
-1.44643e-07
-3.88538e-07
-1.63674e-07
-2.2753e-07
-1.61008e-07
-9.30966e-08
-1.34434e-07
-6.77928e-09
-8.63172e-08
1.97848e-08
-2.65639e-08
1.97848e-08
-3.82213e-08
2.58379e-08
-1.87981e-07
1.88384e-07
-4.39184e-07
3.42198e-07
-7.60264e-07
4.47373e-07
-1.11508e-06
4.9834e-07
-1.46883e-06
4.98688e-07
-1.79006e-06
4.54122e-07
-2.05108e-06
3.70288e-07
-2.22829e-06
2.52802e-07
-2.30321e-06
1.08532e-07
-2.2644e-06
-5.28521e-08
-2.10991e-06
-2.17889e-07
-1.84976e-06
-3.69216e-07
-1.50737e-06
-4.8703e-07
-1.11915e-06
-5.51895e-07
-7.31252e-07
-5.48905e-07
-3.93102e-07
-4.72584e-07
-1.4787e-07
-3.31549e-07
-2.10002e-08
-1.53434e-07
-1.21541e-09
-9.82247e-08
1.24063e-07
-3.67816e-07
4.57975e-07
-7.71547e-07
7.45929e-07
-1.26273e-06
9.38554e-07
-1.7922e-06
1.02781e-06
-2.31281e-06
1.0193e-06
-2.78143e-06
9.2274e-07
-3.1598e-06
7.48663e-07
-3.41544e-06
5.08442e-07
-3.52322e-06
2.16308e-07
-3.46785e-06
-1.08223e-07
-3.24696e-06
-4.38774e-07
-2.87405e-06
-7.42123e-07
-2.38031e-06
-9.80778e-07
-1.81415e-06
-1.11806e-06
-1.23741e-06
-1.12564e-06
-7.17414e-07
-9.92575e-07
-3.15418e-07
-7.33545e-07
-7.29252e-08
-3.95927e-07
-7.41405e-08
-1.53287e-07
2.7735e-07
-5.38168e-07
8.42855e-07
-1.08689e-06
1.29465e-06
-1.73449e-06
1.58616e-06
-2.41957e-06
1.71289e-06
-3.08565e-06
1.68538e-06
-3.68173e-06
1.51883e-06
-4.16269e-06
1.22962e-06
-4.49001e-06
8.35764e-07
-4.63353e-06
3.59829e-07
-4.57414e-06
-1.67618e-07
-4.30723e-06
-7.05684e-07
-3.8463e-06
-1.20305e-06
-3.22568e-06
-1.6014e-06
-2.50111e-06
-1.84262e-06
-1.74666e-06
-1.88009e-06
-1.04681e-06
-1.69243e-06
-4.83816e-07
-1.29654e-06
-1.22851e-07
-7.56892e-07
-1.96992e-07
-2.02491e-07
4.79842e-07
-6.94561e-07
1.33492e-06
-1.37902e-06
1.97911e-06
-2.172e-06
2.37913e-06
-3.00029e-06
2.54118e-06
-3.7998e-06
2.48489e-06
-4.51414e-06
2.23317e-06
-5.09372e-06
1.80919e-06
-5.49574e-06
1.23779e-06
-5.68556e-06
5.49649e-07
-5.63926e-06
-2.13918e-07
-5.34743e-06
-9.97512e-07
-4.81971e-06
-1.73077e-06
-4.08916e-06
-2.33195e-06
-3.2151e-06
-2.71669e-06
-2.28219e-06
-2.81299e-06
-1.39381e-06
-2.58082e-06
-6.58484e-07
-2.03186e-06
-1.7197e-07
-1.24341e-06
-3.68961e-07
-2.46608e-07
7.2645e-07
-8.36809e-07
1.92513e-06
-1.64652e-06
2.78883e-06
-2.57381e-06
3.30642e-06
-3.53463e-06
3.502e-06
-4.45885e-06
3.40911e-06
-5.28666e-06
3.06098e-06
-5.96588e-06
2.48842e-06
-6.45079e-06
1.7227e-06
-6.70245e-06
8.01308e-07
-6.69088e-06
-2.25485e-07
-6.39902e-06
-1.28938e-06
-5.82836e-06
-2.30143e-06
-5.00573e-06
-3.15457e-06
-3.98962e-06
-3.73281e-06
-2.87324e-06
-3.92937e-06
-1.7807e-06
-3.67336e-06
-8.53177e-07
-2.95939e-06
-2.25707e-07
-1.87088e-06
-5.94668e-07
-2.86178e-07
1.01263e-06
-9.64972e-07
2.60392e-06
-1.88792e-06
3.71177e-06
-2.93652e-06
4.35502e-06
-4.01735e-06
4.58282e-06
-5.05605e-06
4.44781e-06
-5.99148e-06
3.99641e-06
-6.77099e-06
3.26793e-06
-7.34743e-06
2.29914e-06
-7.67817e-06
1.13205e-06
-7.72635e-06
-1.77305e-07
-7.46461e-06
-1.55112e-06
-6.88187e-06
-2.88417e-06
-5.99273e-06
-4.04371e-06
-4.84852e-06
-4.87702e-06
-3.5465e-06
-5.23138e-06
-2.23164e-06
-4.98822e-06
-1.0842e-06
-4.10682e-06
-2.9039e-07
-2.66469e-06
-8.85059e-07
-3.21377e-07
1.33401e-06
-1.07858e-06
3.36112e-06
-2.10052e-06
4.73372e-06
-3.25358e-06
5.50809e-06
-4.43672e-06
5.76596e-06
-5.57363e-06
5.58472e-06
-6.60448e-06
5.02725e-06
-7.4788e-06
4.14225e-06
-8.15042e-06
2.97077e-06
-8.57468e-06
1.5563e-06
-8.70814e-06
-4.38358e-08
-8.5116e-06
-1.74766e-06
-7.95725e-06
-3.43852e-06
-7.04057e-06
-4.96039e-06
-5.79675e-06
-6.12084e-06
-4.31847e-06
-6.70967e-06
-2.76736e-06
-6.53933e-06
-1.36787e-06
-5.50632e-06
-3.72653e-07
-3.6599e-06
-1.25771e-06
-3.52366e-07
1.68637e-06
-1.17722e-06
4.18597e-06
-2.28113e-06
5.83763e-06
-3.51613e-06
6.74309e-06
-4.7755e-06
7.02533e-06
-5.98384e-06
6.79306e-06
-7.08601e-06
6.12943e-06
-8.0374e-06
5.09363e-06
-8.79646e-06
3.72983e-06
-9.31972e-06
2.07956e-06
-9.55942e-06
1.95867e-07
-9.46503e-06
-1.84205e-06
-8.98927e-06
-3.91429e-06
-8.10154e-06
-5.84812e-06
-6.80935e-06
-7.41303e-06
-5.18651e-06
-8.33251e-06
-3.40007e-06
-8.32576e-06
-1.71873e-06
-7.18766e-06
-4.79446e-07
-4.89919e-06
-1.73716e-06
-3.80146e-07
2.06652e-06
-1.26241e-06
5.06824e-06
-2.42844e-06
7.00366e-06
-3.71552e-06
8.03017e-06
-5.01343e-06
8.32324e-06
-6.25139e-06
8.03102e-06
-7.38336e-06
7.26139e-06
-8.37536e-06
6.08563e-06
-9.19552e-06
4.54999e-06
-9.8067e-06
2.69074e-06
-1.01618e-05
5.50929e-07
-1.02021e-05
-1.80169e-06
-9.86144e-06
-4.25496e-06
-9.07783e-06
-6.63173e-06
-7.8183e-06
-8.67256e-06
-6.11767e-06
-1.00331e-05
-4.12658e-06
-1.03168e-05
-2.14765e-06
-9.16659e-06
-6.18354e-07
-6.42848e-06
-2.35551e-06
-4.0799e-07
2.47451e-06
-1.34054e-06
6.00079e-06
-2.54663e-06
8.20974e-06
-3.84696e-06
9.33051e-06
-5.13081e-06
9.60709e-06
-6.33708e-06
9.2373e-06
-7.43462e-06
8.35893e-06
-8.40603e-06
7.05704e-06
-9.23541e-06
5.37936e-06
-9.8989e-06
3.35424e-06
-1.03574e-05
1.00941e-06
-1.05515e-05
-1.60758e-06
-1.04008e-05
-4.40565e-06
-9.8114e-06
-7.22114e-06
-8.69886e-06
-9.78509e-06
-7.03469e-06
-1.16973e-05
-4.91859e-06
-1.24329e-05
-2.65844e-06
-1.14267e-05
-7.98059e-07
-8.28886e-06
-3.15357e-06
-4.43734e-07
2.91824e-06
-1.42703e-06
6.98408e-06
-2.64965e-06
9.43236e-06
-3.91297e-06
1.05938e-05
-5.11112e-06
1.08052e-05
-6.20051e-06
1.03267e-05
-7.17237e-06
9.33079e-06
-8.03285e-06
7.91752e-06
-8.78897e-06
6.13549e-06
-9.43798e-06
4.00325e-06
-9.95814e-06
1.52957e-06
-1.03002e-05
-1.26556e-06
-1.03804e-05
-4.32545e-06
-1.00796e-05
-7.52192e-06
-9.25786e-06
-1.06068e-05
-7.80003e-06
-1.31551e-05
-5.70871e-06
-1.45243e-05
-3.24182e-06
-1.38936e-05
-1.02879e-06
-1.05019e-05
-4.18236e-06
-5.03495e-07
3.42174e-06
-1.55131e-06
8.0319e-06
-2.76415e-06
1.06452e-05
-3.92318e-06
1.17529e-05
-4.9388e-06
1.18209e-05
-5.79732e-06
1.11852e-05
-6.52237e-06
1.00558e-05
-7.15119e-06
8.54634e-06
-7.72017e-06
6.70447e-06
-8.25471e-06
4.53778e-06
-8.75983e-06
2.0347e-06
-9.20915e-06
-8.1625e-07
-9.53206e-06
-4.00253e-06
-9.60073e-06
-7.45326e-06
-9.22846e-06
-1.09791e-05
-8.20032e-06
-1.41833e-05
-6.37161e-06
-1.6353e-05
-3.8643e-06
-1.64009e-05
-1.32223e-06
-1.3044e-05
-5.50459e-06
-6.17643e-07
4.03938e-06
-1.7613e-06
9.17557e-06
-2.92599e-06
1.18099e-05
-3.88277e-06
1.27096e-05
-4.58243e-06
1.25205e-05
-5.06119e-06
1.1664e-05
-5.38772e-06
1.03824e-05
-5.63749e-06
8.7961e-06
-5.88035e-06
6.94733e-06
-6.17366e-06
4.83109e-06
-6.55542e-06
2.41647e-06
-7.03342e-06
-3.38252e-07
-7.56906e-06
-3.4669e-06
-8.0518e-06
-6.97052e-06
-8.27517e-06
-1.07557e-05
-7.93429e-06
-1.45242e-05
-6.69986e-06
-1.75874e-05
-4.44801e-06
-1.86528e-05
-1.68847e-06
-1.58035e-05
-7.19306e-06
-8.39073e-07
4.87845e-06
-2.12017e-06
1.04567e-05
-3.15571e-06
1.28454e-05
-3.75067e-06
1.33046e-05
-3.94436e-06
1.27142e-05
-3.85221e-06
1.15718e-05
-3.60181e-06
1.0132e-05
-3.31062e-06
8.50491e-06
-3.08088e-06
6.71759e-06
-2.99901e-06
4.74922e-06
-3.13517e-06
2.55263e-06
-3.53617e-06
6.2743e-08
-4.21036e-06
-2.79271e-06
-5.09515e-06
-6.08573e-06
-6.01006e-06
-9.84079e-06
-6.60598e-06
-1.39283e-05
-6.372e-06
-1.78214e-05
-4.83218e-06
-2.01926e-05
-2.12194e-06
-1.85137e-05
-9.315e-06
-1.24622e-06
6.12467e-06
-2.66841e-06
1.18789e-05
-3.37183e-06
1.35488e-05
-3.32486e-06
1.32576e-05
-2.73894e-06
1.21283e-05
-1.84247e-06
1.06753e-05
-8.28379e-07
9.11788e-06
1.50161e-07
7.52637e-06
9.71022e-07
5.89673e-06
1.53093e-06
4.18931e-06
1.7394e-06
2.34416e-06
1.51648e-06
2.85667e-07
8.04883e-07
-2.08112e-06
-4.0583e-07
-4.87501e-06
-2.01704e-06
-8.22959e-06
-3.72276e-06
-1.22225e-05
-4.90785e-06
-1.66363e-05
-4.69965e-06
-2.04008e-05
-2.55517e-06
-2.06582e-05
-1.18702e-05
-1.90766e-06
8.03233e-06
-3.25732e-06
1.32285e-05
-3.13523e-06
1.34268e-05
-1.96792e-06
1.20903e-05
-2.43115e-07
1.04035e-05
1.69138e-06
8.74086e-06
3.60207e-06
7.20719e-06
5.33164e-06
5.7968e-06
6.7664e-06
4.46198e-06
7.81321e-06
3.1425e-06
8.38381e-06
1.77355e-06
8.38587e-06
2.8361e-07
7.72525e-06
-1.42049e-06
6.3152e-06
-3.46497e-06
4.12706e-06
-6.04145e-06
1.30831e-06
-9.40377e-06
-1.60092e-06
-1.37271e-05
-3.45448e-06
-1.85473e-05
-2.76221e-06
-2.13505e-05
-1.46324e-05
-2.69448e-06
1.07268e-05
-2.96985e-06
1.35039e-05
-9.85572e-07
1.14425e-05
1.95607e-06
9.14867e-06
5.11611e-06
7.24345e-06
8.14259e-06
5.71438e-06
1.08616e-05
4.48816e-06
1.31823e-05
3.47612e-06
1.50486e-05
2.59562e-06
1.6412e-05
1.77912e-06
1.72152e-05
9.70383e-07
1.73806e-05
1.18223e-07
1.68071e-05
-8.4704e-07
1.5355e-05
-2.01283e-06
1.28624e-05
-3.54888e-06
9.21756e-06
-5.75891e-06
4.61155e-06
-9.12105e-06
7.25639e-08
-1.40083e-05
-2.1304e-06
-1.91475e-05
-1.67628e-05
-1.764e-06
1.24908e-05
1.7937e-06
9.94619e-06
6.98874e-06
6.24744e-06
1.18901e-05
4.24733e-06
1.61165e-05
3.01701e-06
1.96523e-05
2.1786e-06
2.25494e-05
1.59109e-06
2.48651e-05
1.16036e-06
2.66412e-05
8.19508e-07
2.78954e-05
5.24904e-07
2.86183e-05
2.47556e-07
2.87697e-05
-3.32061e-08
2.82741e-05
-3.51448e-07
2.69913e-05
-7.30002e-07
2.46916e-05
-1.24921e-06
2.10125e-05
-2.07981e-06
1.55344e-05
-3.6429e-06
8.32608e-06
-6.8e-06
1.51954e-06
-1.2341e-05
-1.52432e-05
1.24908e-05
2.2437e-05
2.86844e-05
3.29318e-05
3.59488e-05
3.81274e-05
3.97185e-05
4.08788e-05
4.16983e-05
4.22232e-05
4.24708e-05
4.24376e-05
4.20861e-05
4.13561e-05
4.01069e-05
3.80271e-05
3.43842e-05
2.75842e-05
1.52432e-05
)
;

boundaryField
{
    movingWall
    {
        type            calculated;
        value           uniform 0;
    }
    fixedWalls
    {
        type            calculated;
        value           uniform 0;
    }
    frontAndBack
    {
        type            empty;
        value           nonuniform 0();
    }
}


// ************************************************************************* //
