/*--------------------------------*- C++ -*----------------------------------*\
| =========                 |                                                 |
| \\      /  F ield         | OpenFOAM: The Open Source CFD Toolbox           |
|  \\    /   O peration     | Version:  5.0                                   |
|   \\  /    A nd           | Web:      www.OpenFOAM.org                      |
|    \\/     M anipulation  |                                                 |
\*---------------------------------------------------------------------------*/
FoamFile
{
    version     2.0;
    format      ascii;
    class       volVectorField;
    location    "0.5";
    object      U;
}
// * * * * * * * * * * * * * * * * * * * * * * * * * * * * * * * * * * * * * //

dimensions      [0 1 -1 0 0 0 0];

internalField   nonuniform List<vector> 
400
(
(0.000238013 -0.000237212 0)
(8.16221e-05 0.000126649 0)
(-0.00125785 0.000551072 0)
(-0.00350189 0.00083648 0)
(-0.00626969 0.00097764 0)
(-0.00921737 0.00100003 0)
(-0.012051 0.000926532 0)
(-0.0145203 0.0007722 0)
(-0.0164083 0.000546453 0)
(-0.017529 0.000258957 0)
(-0.0177382 -7.40459e-05 0)
(-0.0169572 -0.000425309 0)
(-0.0152017 -0.000754842 0)
(-0.0126079 -0.00101304 0)
(-0.00944546 -0.00114787 0)
(-0.00610626 -0.00111595 0)
(-0.00306099 -0.000895861 0)
(-0.000778881 -0.000502984 0)
(0.00036478 -2.06868e-05 0)
(0.000306796 0.000295714 0)
(-0.000114662 -0.00010167 0)
(-0.00173729 0.00171673 0)
(-0.00584909 0.00357512 0)
(-0.0117528 0.0048563 0)
(-0.0186831 0.00549071 0)
(-0.0259267 0.0055367 0)
(-0.0328183 0.00507142 0)
(-0.0387632 0.00416271 0)
(-0.0432449 0.0028712 0)
(-0.0458358 0.00126872 0)
(-0.0462267 -0.000540125 0)
(-0.0442728 -0.0024031 0)
(-0.0400464 -0.00411851 0)
(-0.0338801 -0.00545118 0)
(-0.0263806 -0.00616692 0)
(-0.0183959 -0.0060832 0)
(-0.010915 -0.00512913 0)
(-0.00490254 -0.00340538 0)
(-0.00112958 -0.00126928 0)
(5.84139e-05 0.000401613 0)
(-0.000586996 0.0012631 0)
(-0.00389653 0.00590262 0)
(-0.0108067 0.0101353 0)
(-0.0200344 0.0130257 0)
(-0.0304841 0.0144129 0)
(-0.0412067 0.0143774 0)
(-0.0512998 0.0130662 0)
(-0.0599433 0.0106348 0)
(-0.0664233 0.00724569 0)
(-0.070154 0.00310065 0)
(-0.0707186 -0.0015202 0)
(-0.067927 -0.00623219 0)
(-0.0618796 -0.0105478 0)
(-0.0530203 -0.0139145 0)
(-0.0421548 -0.0157939 0)
(-0.0304137 -0.0157753 0)
(-0.0191272 -0.0137114 0)
(-0.00961715 -0.0098434 0)
(-0.00305436 -0.0049254 0)
(-0.00032297 -0.000525665 0)
(-0.00101012 0.00379817 0)
(-0.00592664 0.0124952 0)
(-0.0155334 0.0197381 0)
(-0.027873 0.0245227 0)
(-0.0415017 0.0266894 0)
(-0.05528 0.0263801 0)
(-0.0681418 0.0238341 0)
(-0.0791198 0.0193151 0)
(-0.0873706 0.0131139 0)
(-0.0921973 0.00559603 0)
(-0.0930931 -0.00274064 0)
(-0.089805 -0.0112277 0)
(-0.0824079 -0.0190291 0)
(-0.0713723 -0.0252015 0)
(-0.0576046 -0.0288197 0)
(-0.0424294 -0.0291628 0)
(-0.0274688 -0.0259385 0)
(-0.0144191 -0.0194889 0)
(-0.00495947 -0.0109473 0)
(-0.000669851 -0.00248901 0)
(-0.0013768 0.00737564 0)
(-0.00776663 0.0213063 0)
(-0.0199012 0.0321226 0)
(-0.0351487 0.0389885 0)
(-0.051715 0.0418854 0)
(-0.0682928 0.0410921 0)
(-0.0836978 0.0369775 0)
(-0.0968672 0.0299321 0)
(-0.106873 0.0203846 0)
(-0.112932 0.0088709 0)
(-0.114444 -0.00388602 0)
(-0.111057 -0.0169199 0)
(-0.102754 -0.0290172 0)
(-0.0899454 -0.0387895 0)
(-0.0735493 -0.0448385 0)
(-0.0550244 -0.0460177 0)
(-0.0362809 -0.0417612 0)
(-0.0194606 -0.0323984 0)
(-0.00688992 -0.0193681 0)
(-0.000988449 -0.00542172 0)
(-0.00169929 0.0118858 0)
(-0.00942655 0.0321714 0)
(-0.0238894 0.0471172 0)
(-0.0418239 0.0562471 0)
(-0.0611037 0.0598293 0)
(-0.0802777 0.058371 0)
(-0.09808 0.0524201 0)
(-0.113394 0.042512 0)
(-0.125243 0.0292108 0)
(-0.132773 0.0132066 0)
(-0.135282 -0.00457354 0)
(-0.132279 -0.0228813 0)
(-0.123581 -0.0401199 0)
(-0.10944 -0.054409 0)
(-0.0906861 -0.0637735 0)
(-0.068839 -0.0664766 0)
(-0.046088 -0.0614779 0)
(-0.0251028 -0.0489083 0)
(-0.00902932 -0.0304109 0)
(-0.00132747 -0.00936177 0)
(-0.00198626 0.0172327 0)
(-0.0109179 0.0449077 0)
(-0.0274868 0.0645066 0)
(-0.0478498 0.076077 0)
(-0.0695798 0.0803162 0)
(-0.0911124 0.07806 0)
(-0.11114 0.0700904 0)
(-0.128538 0.0571046 0)
(-0.142316 0.039788 0)
(-0.151577 0.0189487 0)
(-0.155514 -0.00433259 0)
(-0.153464 -0.0285737 0)
(-0.145005 -0.0518196 0)
(-0.130125 -0.0716703 0)
(-0.109437 -0.0854631 0)
(-0.0843996 -0.0906615 0)
(-0.0574245 -0.0854629 0)
(-0.0317667 -0.0695109 0)
(-0.0116021 -0.0444845 0)
(-0.00174461 -0.014463 0)
(-0.00224196 0.0233272 0)
(-0.012244 0.0593179 0)
(-0.0306695 0.0840304 0)
(-0.053141 0.098186 0)
(-0.0769656 0.103056 0)
(-0.100505 0.0999116 0)
(-0.122461 0.0898294 0)
(-0.141753 0.0736849 0)
(-0.157432 0.0522628 0)
(-0.168599 0.0264342 0)
(-0.174366 -0.00264422 0)
(-0.173886 -0.0333419 0)
(-0.166447 -0.0634146 0)
(-0.15166 -0.0899559 0)
(-0.129756 -0.109524 0)
(-0.101944 -0.118548 0)
(-0.0707022 -0.114078 0)
(-0.0398573 -0.0948281 0)
(-0.0148467 -0.0621996 0)
(-0.00230294 -0.0210102 0)
(-0.00247039 0.030082 0)
(-0.0134103 0.0751908 0)
(-0.0334139 0.105377 0)
(-0.0575905 0.122188 0)
(-0.0830117 0.127625 0)
(-0.108014 0.123514 0)
(-0.131372 0.111298 0)
(-0.152122 0.0920483 0)
(-0.169431 0.0666232 0)
(-0.182468 0.0358903 0)
(-0.190322 0.000981102 0)
(-0.191995 -0.0364519 0)
(-0.186467 -0.0740004 0)
(-0.172881 -0.108335 0)
(-0.150899 -0.135207 0)
(-0.121209 -0.149788 0)
(-0.0860637 -0.147517 0)
(-0.049698 -0.125525 0)
(-0.0190079 -0.0843511 0)
(-0.00307575 -0.0294257 0)
(-0.00268439 0.0374176 0)
(-0.0144527 0.0923098 0)
(-0.0357411 0.128178 0)
(-0.0611198 0.147566 0)
(-0.0874476 0.153399 0)
(-0.113099 0.148204 0)
(-0.137003 0.133866 0)
(-0.158408 0.111682 0)
(-0.176695 0.0825611 0)
(-0.191203 0.0472968 0)
(-0.201104 0.00687876 0)
(-0.205336 -0.0371789 0)
(-0.202616 -0.0824949 0)
(-0.191585 -0.125499 0)
(-0.171162 -0.161231 0)
(-0.141176 -0.183474 0)
(-0.103193 -0.185558 0)
(-0.061448 -0.162133 0)
(-0.0243355 -0.111859 0)
(-0.0041571 -0.0402786 0)
(-0.00292141 0.0452915 0)
(-0.0154842 0.110488 0)
(-0.0377857 0.15201 0)
(-0.0637536 0.173643 0)
(-0.0900534 0.179494 0)
(-0.115187 0.172969 0)
(-0.138355 0.156499 0)
(-0.159132 0.131638 0)
(-0.177235 0.0993272 0)
(-0.192306 0.0602255 0)
(-0.203742 0.0150649 0)
(-0.210572 -0.0349586 0)
(-0.211385 -0.0877418 0)
(-0.204377 -0.139777 0)
(-0.18763 -0.185663 0)
(-0.159772 -0.217868 0)
(-0.121058 -0.227213 0)
(-0.0749687 -0.204761 0)
(-0.0310768 -0.145653 0)
(-0.00567832 -0.0543034 0)
(-0.00327057 0.0537642 0)
(-0.0167655 0.129639 0)
(-0.039884 0.176418 0)
(-0.0656974 0.199542 0)
(-0.0907183 0.204688 0)
(-0.11373 0.19637 0)
(-0.134362 0.177665 0)
(-0.152663 0.150422 0)
(-0.16882 0.115604 0)
(-0.182922 0.0736873 0)
(-0.19476 0.0250525 0)
(-0.203659 -0.0295938 0)
(-0.208308 -0.0887075 0)
(-0.206658 -0.149253 0)
(-0.196017 -0.205887 0)
(-0.173575 -0.250165 0)
(-0.137574 -0.270309 0)
(-0.089605 -0.252664 0)
(-0.0394464 -0.186467 0)
(-0.00783193 -0.0724322 0)
(-0.00392072 0.0631255 0)
(-0.018808 0.149888 0)
(-0.0426621 0.200918 0)
(-0.0673647 0.224126 0)
(-0.0894094 0.227338 0)
(-0.108138 0.216444 0)
(-0.123843 0.19526 0)
(-0.137217 0.165932 0)
(-0.149051 0.129434 0)
(-0.160006 0.0860292 0)
(-0.170428 0.0356923 0)
(-0.180155 -0.0214813 0)
(-0.188271 -0.0847614 0)
(-0.192835 -0.152048 0)
(-0.190681 -0.218763 0)
(-0.177591 -0.276385 0)
(-0.149218 -0.311043 0)
(-0.103838 -0.303627 0)
(-0.0495337 -0.234462 0)
(-0.0108998 -0.0958369 0)
(-0.00524494 0.0741211 0)
(-0.0225097 0.171692 0)
(-0.0470572 0.224932 0)
(-0.0692193 0.245829 0)
(-0.0858726 0.245211 0)
(-0.0974171 0.230602 0)
(-0.105144 0.206561 0)
(-0.110575 0.17547 0)
(-0.115204 0.138257 0)
(-0.120333 0.0949531 0)
(-0.126949 0.0451243 0)
(-0.135566 -0.0117767 0)
(-0.14596 -0.0759843 0)
(-0.156755 -0.146733 0)
(-0.164886 -0.221024 0)
(-0.165195 -0.291529 0)
(-0.150622 -0.343675 0)
(-0.114757 -0.353196 0)
(-0.0610537 -0.288548 0)
(-0.0152571 -0.125926 0)
(-0.00792876 0.0883258 0)
(-0.0292684 0.195883 0)
(-0.0540503 0.247482 0)
(-0.0710828 0.262282 0)
(-0.0786715 0.255202 0)
(-0.07912 0.235492 0)
(-0.0751337 0.208246 0)
(-0.0692127 0.175873 0)
(-0.0635636 0.139119 0)
(-0.0600731 0.0977439 0)
(-0.0603159 0.0509486 0)
(-0.0655021 -0.0023711 0)
(-0.0762772 -0.0633806 0)
(-0.0922659 -0.132822 0)
(-0.111295 -0.209958 0)
(-0.128279 -0.290185 0)
(-0.134171 -0.360596 0)
(-0.117231 -0.393915 0)
(-0.0726868 -0.345278 0)
(-0.0212246 -0.164171 0)
(-0.0130528 0.10876 0)
(-0.0407272 0.223314 0)
(-0.0633934 0.266312 0)
(-0.070024 0.269526 0)
(-0.0627401 0.252877 0)
(-0.0469313 0.226881 0)
(-0.0270335 0.196563 0)
(-0.0064699 0.163892 0)
(0.0120482 0.129174 0)
(0.0263094 0.0918265 0)
(0.0344103 0.0507542 0)
(0.0346367 0.00449172 0)
(0.0255518 -0.0487779 0)
(0.00630584 -0.111103 0)
(-0.0225838 -0.18423 0)
(-0.0575818 -0.267577 0)
(-0.0895794 -0.353001 0)
(-0.102612 -0.414836 0)
(-0.0805453 -0.397381 0)
(-0.0283943 -0.211927 0)
(-0.0216451 0.141145 0)
(-0.056839 0.253052 0)
(-0.0691547 0.275195 0)
(-0.054767 0.260089 0)
(-0.0239945 0.231587 0)
(0.013935 0.199581 0)
(0.0532695 0.167751 0)
(0.0902921 0.136899 0)
(0.122415 0.106548 0)
(0.147657 0.0756941 0)
(0.164262 0.0430522 0)
(0.170451 0.00707333 0)
(0.164358 -0.0342296 0)
(0.144072 -0.083553 0)
(0.1081 -0.144526 0)
(0.0569492 -0.220888 0)
(-0.00334236 -0.312141 0)
(-0.0567717 -0.401374 0)
(-0.0753921 -0.43161 0)
(-0.0336833 -0.270265 0)
(-0.0313281 0.194337 0)
(-0.0676736 0.276116 0)
(-0.0464499 0.257786 0)
(0.00707537 0.220005 0)
(0.070445 0.182071 0)
(0.133441 0.148402 0)
(0.191491 0.119518 0)
(0.24224 0.0944371 0)
(0.284363 0.0717739 0)
(0.316909 0.0501804 0)
(0.338883 0.0283892 0)
(0.348977 0.00509147 0)
(0.345462 -0.0213093 0)
(0.325939 -0.0531919 0)
(0.287282 -0.0945232 0)
(0.226329 -0.151707 0)
(0.142544 -0.232536 0)
(0.0434592 -0.336618 0)
(-0.0374287 -0.423542 0)
(-0.0258199 -0.331356 0)
(-0.0113035 0.253182 0)
(-0.0157501 0.259486 0)
(0.0823269 0.190823 0)
(0.190207 0.139748 0)
(0.28291 0.104054 0)
(0.360396 0.0781109 0)
(0.424517 0.0588876 0)
(0.4765 0.0441092 0)
(0.517323 0.0320124 0)
(0.547612 0.0213275 0)
(0.567481 0.0111184 0)
(0.576452 0.000599797 0)
(0.573433 -0.0110369 0)
(0.556338 -0.0251485 0)
(0.521646 -0.044203 0)
(0.463687 -0.0734889 0)
(0.373942 -0.124029 0)
(0.24092 -0.212169 0)
(0.0838838 -0.332323 0)
(0.0374668 -0.33813 0)
(0.280292 0.14146 0)
(0.358556 0.12371 0)
(0.505844 0.07827 0)
(0.619412 0.0493252 0)
(0.693009 0.0320569 0)
(0.743582 0.0212428 0)
(0.780409 0.0142879 0)
(0.8075 0.00964721 0)
(0.827052 0.00631924 0)
(0.84036 0.00368229 0)
(0.848044 0.00135112 0)
(0.850222 -0.00093192 0)
(0.846516 -0.0033546 0)
(0.835962 -0.00629399 0)
(0.816648 -0.0103825 0)
(0.784383 -0.0171998 0)
(0.729584 -0.0310391 0)
(0.625734 -0.0622163 0)
(0.448763 -0.123247 0)
(0.324041 -0.155202 0)
)
;

boundaryField
{
    movingWall
    {
        type            fixedValue;
        value           uniform (1 0 0);
    }
    fixedWalls
    {
        type            noSlip;
    }
    frontAndBack
    {
        type            empty;
    }
}


// ************************************************************************* //
