/*--------------------------------*- C++ -*----------------------------------*\
| =========                 |                                                 |
| \\      /  F ield         | OpenFOAM: The Open Source CFD Toolbox           |
|  \\    /   O peration     | Version:  5.0                                   |
|   \\  /    A nd           | Web:      www.OpenFOAM.org                      |
|    \\/     M anipulation  |                                                 |
\*---------------------------------------------------------------------------*/
FoamFile
{
    version     2.0;
    format      ascii;
    class       volScalarField;
    location    "0.3";
    object      p;
}
// * * * * * * * * * * * * * * * * * * * * * * * * * * * * * * * * * * * * * //

dimensions      [0 2 -2 0 0 0 0];

internalField   nonuniform List<scalar> 
400
(
2.17178e-08
-0.000139108
-0.000210029
-0.000184691
-4.98268e-05
0.000197119
0.000554644
0.00102039
0.00158981
0.00225266
0.00298903
0.00376613
0.00453659
0.00524113
0.00581595
0.00620645
0.0063853
0.00636986
0.00622683
0.00603534
0.000137807
-5.36023e-06
-4.75701e-05
5.04942e-06
0.000149791
0.000390172
0.000727885
0.00116285
0.00169199
0.00230623
0.00298732
0.00370527
0.00441709
0.00506873
0.00560269
0.00597072
0.00615079
0.00616048
0.00604701
0.0058554
0.000206388
2.22878e-05
-2.29515e-05
3.5779e-05
0.000180219
0.000412247
0.000735017
0.00115083
0.00165948
0.00225504
0.00292228
0.00363351
0.00434618
0.00500449
0.00554628
0.00591714
0.00609055
0.00608348
0.00593889
0.00569209
0.00015788
-7.47626e-05
-0.000135917
-8.25126e-05
5.4687e-05
0.0002759
0.000585648
0.00098919
0.00149042
0.00208797
0.00277074
0.00351342
0.00427223
0.00498445
0.00557512
0.00597365
0.00614079
0.00609222
0.00587997
0.00554995
-4.76879e-05
-0.000322566
-0.000401671
-0.000358554
-0.00023307
-2.55233e-05
0.000270743
0.000664837
0.00116592
0.00177872
0.00249791
0.0033017
0.00414525
0.00495574
0.00563826
0.00609536
0.00626447
0.00615703
0.00584615
0.005409
-0.000437298
-0.000748888
-0.0008469
-0.000818017
-0.000708943
-0.000519648
-0.000240652
0.000141849
0.000643591
0.00127743
0.00204655
0.00293561
0.00390233
0.00486242
0.00569405
0.00625796
0.00645007
0.00626717
0.00581168
0.00521506
-0.00102885
-0.00137492
-0.00149388
-0.00148416
-0.00139857
-0.00123659
-0.000985765
-0.000627097
-0.000137151
0.000507449
0.00132253
0.00230493
0.00342565
0.00459226
0.0056523
0.00640494
0.00667187
0.00640796
0.00574045
0.00487901
-0.00183616
-0.00221748
-0.00236099
-0.00237743
-0.00232649
-0.00220809
-0.00200754
-0.00170129
-0.0012582
-0.000642815
0.000178818
0.00122787
0.00249689
0.00391438
0.00530534
0.00638737
0.00685199
0.00654907
0.00559062
0.00427176
-0.00287112
-0.00329093
-0.00346393
-0.00351557
-0.00351501
-0.00346492
-0.00335093
-0.00314778
-0.00281968
-0.00232127
-0.00159826
-0.000593266
0.000728408
0.00237287
0.00419084
0.00582448
0.00675732
0.00660093
0.00532044
0.0032215
-0.00414434
-0.00460779
-0.00481501
-0.00491079
-0.0049787
-0.00502854
-0.00505125
-0.00502646
-0.0049225
-0.004695
-0.00428097
-0.00358856
-0.00249124
-0.00084039
0.0013789
0.00383376
0.00575488
0.00627578
0.00486326
0.00154381
-0.00566606
-0.0061797
-0.00642199
-0.00656529
-0.0067159
-0.00689751
-0.00711411
-0.0073614
-0.00762871
-0.00789761
-0.00812898
-0.00822152
-0.00793366
-0.00686593
-0.00463405
-0.00122824
0.00246742
0.00480705
0.00400757
-0.00079808
-0.00744942
-0.00802029
-0.00828755
-0.00846602
-0.00869811
-0.00903009
-0.00948833
-0.010099
-0.0108962
-0.0119248
-0.013223
-0.0147436
-0.0161615
-0.0166732
-0.0153952
-0.0113666
-0.00513742
0.000774245
0.00227726
-0.00324724
-0.00951982
-0.0101523
-0.0104106
-0.0105798
-0.0108594
-0.0113269
-0.0120381
-0.0130622
-0.0145008
-0.0165003
-0.0192326
-0.0227727
-0.0268069
-0.0302445
-0.0309825
-0.0271959
-0.0183184
-0.00718323
-0.000703972
-0.00412709
-0.0119364
-0.0126228
-0.0127903
-0.0128501
-0.01309
-0.0136222
-0.0145308
-0.0159304
-0.0179984
-0.0209985
-0.0252593
-0.0310036
-0.0379469
-0.0447141
-0.0484648
-0.0459984
-0.035307
-0.0184718
-0.00425598
-0.00122259
-0.0148398
-0.0155311
-0.0154316
-0.0151949
-0.015239
-0.015697
-0.0166646
-0.0182898
-0.020812
-0.0245896
-0.030076
-0.0375855
-0.0468316
-0.056312
-0.0627957
-0.0619892
-0.0506164
-0.0290854
-0.00592795
0.00696701
-0.0185618
-0.0190805
-0.0183429
-0.0175009
-0.017125
-0.0173156
-0.0181435
-0.0197665
-0.0224596
-0.026615
-0.03276
-0.0411739
-0.0514766
-0.0622191
-0.0700189
-0.0698093
-0.0577626
-0.0326174
-0.00121046
0.0234597
-0.0239289
-0.0236523
-0.0214897
-0.0195952
-0.0185472
-0.0182776
-0.018776
-0.020189
-0.0228104
-0.026946
-0.0332459
-0.0418122
-0.0521506
-0.0624333
-0.0691443
-0.0673952
-0.0526262
-0.0225048
0.0179684
0.0592182
-0.0331496
-0.029843
-0.0247551
-0.021288
-0.0193359
-0.0184696
-0.0185347
-0.0196466
-0.022055
-0.0261192
-0.0322339
-0.0404102
-0.049894
-0.0584973
-0.0623942
-0.0560852
-0.0341804
0.00678234
0.063762
0.136168
-0.0518515
-0.0380564
-0.0274574
-0.0214848
-0.0183986
-0.0169808
-0.0168014
-0.0178353
-0.0202521
-0.0243206
-0.0302605
-0.0378636
-0.0461046
-0.0524027
-0.0524516
-0.039459
-0.00615482
0.0549028
0.145776
0.268671
-0.116453
-0.0422362
-0.0178617
-0.0125543
-0.0108351
-0.0102315
-0.010856
-0.0127333
-0.0158982
-0.0204999
-0.0266459
-0.0339389
-0.0411598
-0.0454759
-0.0426049
-0.0253042
0.0173884
0.100961
0.237213
0.432728
)
;

boundaryField
{
    movingWall
    {
        type            zeroGradient;
    }
    fixedWalls
    {
        type            zeroGradient;
    }
    frontAndBack
    {
        type            empty;
    }
}


// ************************************************************************* //
