/*--------------------------------*- C++ -*----------------------------------*\
| =========                 |                                                 |
| \\      /  F ield         | OpenFOAM: The Open Source CFD Toolbox           |
|  \\    /   O peration     | Version:  5.0                                   |
|   \\  /    A nd           | Web:      www.OpenFOAM.org                      |
|    \\/     M anipulation  |                                                 |
\*---------------------------------------------------------------------------*/
FoamFile
{
    version     2.0;
    format      ascii;
    class       surfaceScalarField;
    location    "0.3";
    object      phi;
}
// * * * * * * * * * * * * * * * * * * * * * * * * * * * * * * * * * * * * * //

dimensions      [0 3 -1 0 0 0 0];

internalField   nonuniform List<scalar> 
760
(
-5.50924e-09
5.50767e-09
-4.61124e-08
4.06032e-08
-1.12475e-07
6.63627e-08
-1.91073e-07
7.85978e-08
-2.73009e-07
8.19359e-08
-3.52919e-07
7.99108e-08
-4.27137e-07
7.4218e-08
-4.92296e-07
6.51594e-08
-5.44522e-07
5.22261e-08
-5.79199e-07
3.46775e-08
-5.91267e-07
1.20686e-08
-5.75977e-07
-1.52907e-08
-5.30271e-07
-4.57056e-08
-4.54446e-07
-7.58247e-08
-3.5389e-07
-1.00556e-07
-2.4011e-07
-1.1378e-07
-1.30208e-07
-1.09902e-07
-4.43011e-08
-8.59068e-08
-5.45278e-10
-4.37561e-08
-5.45601e-10
-4.27003e-08
4.82081e-08
-1.55812e-07
1.53715e-07
-3.1477e-07
2.25321e-07
-4.97139e-07
2.60967e-07
-6.85756e-07
2.70553e-07
-8.68422e-07
2.62577e-07
-1.03588e-06
2.41675e-07
-1.17978e-06
2.09057e-07
-1.29137e-06
1.63819e-07
-1.36116e-06
1.04465e-07
-1.37949e-06
3.04019e-08
-1.33803e-06
-5.675e-08
-1.23213e-06
-1.51602e-07
-1.06396e-06
-2.43995e-07
-8.45325e-07
-3.19192e-07
-5.99277e-07
-3.59829e-07
-3.58699e-07
-3.50481e-07
-1.60569e-07
-2.84038e-07
-3.59573e-08
-1.68368e-07
-3.65032e-08
-7.56244e-08
1.23833e-07
-2.47519e-07
3.25609e-07
-4.76601e-07
4.54404e-07
-7.33298e-07
5.17664e-07
-9.95749e-07
5.33003e-07
-1.24807e-06
5.14896e-07
-1.47785e-06
4.71464e-07
-1.67388e-06
4.05081e-07
-1.82458e-06
3.14524e-07
-1.91765e-06
1.97531e-07
-1.94065e-06
5.34007e-08
-1.88275e-06
-1.14651e-07
-1.73775e-06
-2.96597e-07
-1.50797e-06
-4.7378e-07
-1.20827e-06
-6.18892e-07
-8.68652e-07
-6.99444e-07
-5.32824e-07
-6.8631e-07
-2.50546e-07
-5.66317e-07
-6.46447e-08
-3.54269e-07
-1.01148e-07
-9.92261e-08
2.23059e-07
-3.16869e-07
5.43252e-07
-6.00304e-07
7.37839e-07
-9.13302e-07
8.30662e-07
-1.23075e-06
8.5045e-07
-1.53497e-06
8.19121e-07
-1.81231e-06
7.48803e-07
-2.05029e-06
6.43062e-07
-2.23584e-06
5.00065e-07
-2.35455e-06
3.16247e-07
-2.39122e-06
9.00658e-08
-2.33144e-06
-1.74428e-07
-2.1651e-06
-4.62935e-07
-1.89147e-06
-7.47413e-07
-1.52527e-06
-9.8509e-07
-1.10178e-06
-1.12294e-06
-6.76796e-07
-1.11129e-06
-3.16961e-07
-9.26152e-07
-8.05628e-08
-5.90667e-07
-1.81711e-07
-1.16342e-07
3.39401e-07
-3.69673e-07
7.96583e-07
-6.96487e-07
1.06465e-06
-1.05483e-06
1.189e-06
-1.41731e-06
1.21293e-06
-1.76573e-06
1.16755e-06
-2.08653e-06
1.0696e-06
-2.36724e-06
9.23771e-07
-2.59414e-06
7.26965e-07
-2.75101e-06
4.7312e-07
-2.81907e-06
1.58119e-07
-2.77825e-06
-2.15245e-07
-2.61069e-06
-6.30491e-07
-2.30767e-06
-1.05043e-06
-1.87904e-06
-1.41373e-06
-1.36348e-06
-1.63849e-06
-8.32908e-07
-1.64186e-06
-3.80776e-07
-1.37828e-06
-9.04019e-08
-8.81041e-07
-2.72113e-07
-1.29808e-07
4.69209e-07
-4.12661e-07
1.07944e-06
-7.76397e-07
1.42839e-06
-1.17438e-06
1.58699e-06
-1.57786e-06
1.6164e-06
-1.96918e-06
1.55887e-06
-2.33613e-06
1.43655e-06
-2.66749e-06
1.25513e-06
-2.94994e-06
1.00941e-06
-3.16588e-06
6.89066e-07
-3.29229e-06
2.84529e-07
-3.30116e-06
-2.06372e-07
-3.16165e-06
-7.70007e-07
-2.84946e-06
-1.36262e-06
-2.3609e-06
-1.90229e-06
-1.73266e-06
-2.26674e-06
-1.05674e-06
-2.31779e-06
-4.69998e-07
-1.96502e-06
-1.01485e-07
-1.24955e-06
-3.73598e-07
-1.41679e-07
6.10888e-07
-4.51196e-07
1.38895e-06
-8.48882e-07
1.82607e-06
-1.28422e-06
2.02233e-06
-1.72793e-06
2.06011e-06
-2.16407e-06
1.99501e-06
-2.58318e-06
1.85566e-06
-2.97699e-06
1.64893e-06
-3.33431e-06
1.36673e-06
-3.63762e-06
9.92382e-07
-3.85996e-06
5.0687e-07
-3.96393e-06
-1.02404e-07
-3.89914e-06
-8.34797e-07
-3.61497e-06
-1.64679e-06
-3.07905e-06
-2.43821e-06
-2.31265e-06
-3.03314e-06
-1.42713e-06
-3.2033e-06
-6.25697e-07
-2.76646e-06
-1.2339e-07
-1.75186e-06
-4.96988e-07
-1.53271e-07
7.6416e-07
-4.88838e-07
1.72452e-06
-9.19571e-07
2.25681e-06
-1.3914e-06
2.49416e-06
-1.87533e-06
2.54404e-06
-2.35837e-06
2.47805e-06
-2.83563e-06
2.33292e-06
-3.30411e-06
2.11741e-06
-3.75765e-06
1.82028e-06
-4.18195e-06
1.41668e-06
-4.54842e-06
8.73341e-07
-4.80931e-06
1.58488e-07
-4.8903e-06
-7.53803e-07
-4.69957e-06
-1.83753e-06
-4.15386e-06
-2.98392e-06
-3.23394e-06
-3.95305e-06
-2.05712e-06
-4.38012e-06
-9.14102e-07
-3.90948e-06
-1.72875e-07
-2.49309e-06
-6.69863e-07
-1.6542e-07
9.2958e-07
-5.27794e-07
2.08689e-06
-9.91449e-07
2.72046e-06
-1.49854e-06
3.00125e-06
-2.021e-06
3.0665e-06
-2.55016e-06
3.00721e-06
-3.0877e-06
2.87047e-06
-3.63885e-06
2.66855e-06
-4.20645e-06
2.38788e-06
-4.78416e-06
1.99439e-06
-5.3469e-06
1.43608e-06
-5.83626e-06
6.47847e-07
-6.15501e-06
-4.35051e-07
-6.15361e-06
-1.83893e-06
-5.6743e-06
-3.46323e-06
-4.62248e-06
-5.00487e-06
-3.08575e-06
-5.91686e-06
-1.4378e-06
-5.55743e-06
-2.81965e-07
-3.64892e-06
-9.51828e-07
-1.78974e-07
1.10855e-06
-5.69996e-07
2.47792e-06
-1.06638e-06
3.21684e-06
-1.60561e-06
3.54049e-06
-2.16096e-06
3.62185e-06
-2.72924e-06
3.57549e-06
-3.32061e-06
3.46183e-06
-3.95125e-06
3.29919e-06
-4.63705e-06
3.07368e-06
-5.385e-06
2.74235e-06
-6.17899e-06
2.23007e-06
-6.95749e-06
1.42635e-06
-7.59761e-06
2.05064e-07
-7.89102e-06
-1.54552e-06
-7.59402e-06
-3.76023e-06
-6.50518e-06
-6.09371e-06
-4.6217e-06
-7.80033e-06
-2.33175e-06
-7.84738e-06
-5.12242e-07
-5.46843e-06
-1.46407e-06
-1.95514e-07
1.30407e-06
-6.18685e-07
2.90109e-06
-1.14727e-06
3.74543e-06
-1.71246e-06
4.10567e-06
-2.28898e-06
4.19837e-06
-2.87981e-06
4.16632e-06
-3.50434e-06
4.08636e-06
-4.19091e-06
3.98577e-06
-4.97048e-06
3.85325e-06
-5.86641e-06
3.63828e-06
-6.87625e-06
3.23991e-06
-7.94447e-06
2.49457e-06
-8.92502e-06
1.18561e-06
-9.57909e-06
-8.91449e-07
-9.59584e-06
-3.74348e-06
-8.6624e-06
-7.02716e-06
-6.61704e-06
-9.84569e-06
-3.70877e-06
-1.07556e-05
-9.70894e-07
-8.20631e-06
-2.43496e-06
-2.18419e-07
1.52249e-06
-6.80568e-07
3.36324e-06
-1.24086e-06
4.30573e-06
-1.82191e-06
4.68673e-06
-2.40004e-06
4.7765e-06
-2.98421e-06
4.75049e-06
-3.60171e-06
4.70386e-06
-4.29067e-06
4.67473e-06
-5.09421e-06
4.65679e-06
-6.05004e-06
4.59411e-06
-7.17039e-06
4.36026e-06
-8.41185e-06
3.73603e-06
-9.64596e-06
2.41972e-06
-1.0615e-05
7.76341e-08
-1.10387e-05
-3.31985e-06
-1.05184e-05
-7.54747e-06
-8.70133e-06
-1.16627e-05
-5.50566e-06
-1.39513e-05
-1.78134e-06
-1.19306e-05
-4.21631e-06
-2.54614e-07
1.7771e-06
-7.68851e-07
3.87747e-06
-1.36098e-06
4.89786e-06
-1.9431e-06
5.26884e-06
-2.49424e-06
5.32764e-06
-3.02862e-06
5.28486e-06
-3.57748e-06
5.25272e-06
-4.18193e-06
5.27917e-06
-4.88854e-06
5.3634e-06
-5.74111e-06
5.44668e-06
-6.76415e-06
5.38329e-06
-7.93865e-06
4.91053e-06
-9.17724e-06
3.65831e-06
-1.03322e-05
1.23263e-06
-1.11255e-05
-2.52663e-06
-1.12279e-05
-7.44498e-06
-1.01211e-05
-1.27696e-05
-7.27908e-06
-1.67933e-05
-2.9336e-06
-1.62761e-05
-7.14991e-06
-3.17711e-07
2.09481e-06
-9.07704e-07
4.46747e-06
-1.53215e-06
5.5223e-06
-2.09388e-06
5.83058e-06
-2.5795e-06
5.81326e-06
-3.00848e-06
5.71384e-06
-3.41085e-06
5.65509e-06
-3.82156e-06
5.68989e-06
-4.27935e-06
5.82119e-06
-4.82399e-06
5.99132e-06
-5.48983e-06
6.04913e-06
-6.29514e-06
5.71584e-06
-7.23377e-06
4.59694e-06
-8.27975e-06
2.27861e-06
-9.29949e-06
-1.50688e-06
-1.00592e-05
-6.68526e-06
-9.99933e-06
-1.28295e-05
-8.22172e-06
-1.85709e-05
-4.09695e-06
-2.04009e-05
-1.12469e-05
-4.34165e-07
2.52898e-06
-1.13915e-06
5.17245e-06
-1.7919e-06
6.17505e-06
-2.29849e-06
6.33717e-06
-2.66647e-06
6.18125e-06
-2.924e-06
5.97136e-06
-3.09687e-06
5.82796e-06
-3.20776e-06
5.80077e-06
-3.28021e-06
5.89364e-06
-3.34332e-06
6.05443e-06
-3.43983e-06
6.14564e-06
-3.63069e-06
5.9067e-06
-3.99797e-06
4.96422e-06
-4.64844e-06
2.92908e-06
-5.64158e-06
-5.13748e-07
-6.8601e-06
-5.46674e-06
-7.86548e-06
-1.18241e-05
-7.619e-06
-1.88174e-05
-4.72392e-06
-2.32959e-05
-1.59708e-05
-6.56926e-07
3.1859e-06
-1.5339e-06
6.04942e-06
-2.18596e-06
6.82711e-06
-2.56716e-06
6.71837e-06
-2.73451e-06
6.3486e-06
-2.73423e-06
5.97109e-06
-2.59126e-06
5.68499e-06
-2.31825e-06
5.52776e-06
-1.92583e-06
5.50122e-06
-1.4306e-06
5.55921e-06
-8.82323e-07
5.59736e-06
-3.79052e-07
5.40343e-06
-8.47313e-08
4.6699e-06
-1.80025e-07
3.02438e-06
-8.55122e-07
1.61349e-07
-2.16754e-06
-4.15432e-06
-3.94825e-06
-1.00434e-05
-5.29361e-06
-1.7472e-05
-4.33111e-06
-2.42584e-05
-2.03019e-05
-1.10177e-06
4.28767e-06
-2.20014e-06
7.14778e-06
-2.72055e-06
7.34753e-06
-2.79439e-06
6.79221e-06
-2.57962e-06
6.13383e-06
-2.16031e-06
5.55178e-06
-1.5725e-06
5.09718e-06
-8.28808e-07
4.78407e-06
6.8294e-08
4.60412e-06
1.10078e-06
4.52672e-06
2.23344e-06
4.4647e-06
3.36647e-06
4.2704e-06
4.3185e-06
3.71786e-06
4.82622e-06
2.51666e-06
4.58779e-06
3.99777e-07
3.42176e-06
-2.98828e-06
1.27543e-06
-7.89706e-06
-1.40331e-06
-1.47933e-05
-2.74188e-06
-2.29199e-05
-2.30438e-05
-2.053e-06
6.34067e-06
-3.15681e-06
8.25159e-06
-2.98634e-06
7.17707e-06
-2.19828e-06
6.00414e-06
-1.14837e-06
5.08393e-06
3.06586e-08
4.37275e-06
1.29606e-06
3.83177e-06
2.63908e-06
3.44105e-06
4.06384e-06
3.17936e-06
5.57774e-06
3.01282e-06
7.15741e-06
2.88503e-06
8.72721e-06
2.7006e-06
1.01227e-05
2.32233e-06
1.10797e-05
1.55973e-06
1.12457e-05
2.33689e-07
1.0298e-05
-2.0405e-06
7.91749e-06
-5.51659e-06
4.14455e-06
-1.10203e-05
6.29024e-07
-1.94044e-05
-2.24147e-05
-3.64648e-06
9.98715e-06
-2.28014e-06
6.88526e-06
5.34999e-07
4.36193e-06
3.20994e-06
3.32921e-06
5.6237e-06
2.67016e-06
7.83311e-06
2.16334e-06
9.87681e-06
1.78808e-06
1.17927e-05
1.52516e-06
1.36244e-05
1.34761e-06
1.54099e-05
1.22739e-06
1.71606e-05
1.13427e-06
1.88385e-05
1.02272e-06
2.03268e-05
8.34062e-07
2.13851e-05
5.01389e-07
2.16365e-05
-1.76854e-08
2.06807e-05
-1.08473e-06
1.79257e-05
-2.76156e-06
1.27733e-05
-5.86799e-06
5.40707e-06
-1.20381e-05
-1.70077e-05
9.98715e-06
1.68724e-05
2.12343e-05
2.45635e-05
2.72337e-05
2.9397e-05
3.11851e-05
3.27103e-05
3.40579e-05
3.52853e-05
3.64195e-05
3.74423e-05
3.82763e-05
3.87777e-05
3.876e-05
3.76753e-05
3.49137e-05
2.90458e-05
1.70077e-05
)
;

boundaryField
{
    movingWall
    {
        type            calculated;
        value           uniform 0;
    }
    fixedWalls
    {
        type            calculated;
        value           uniform 0;
    }
    frontAndBack
    {
        type            empty;
        value           nonuniform 0();
    }
}


// ************************************************************************* //
