/*--------------------------------*- C++ -*----------------------------------*\
| =========                 |                                                 |
| \\      /  F ield         | OpenFOAM: The Open Source CFD Toolbox           |
|  \\    /   O peration     | Version:  5.0                                   |
|   \\  /    A nd           | Web:      www.OpenFOAM.org                      |
|    \\/     M anipulation  |                                                 |
\*---------------------------------------------------------------------------*/
FoamFile
{
    version     2.0;
    format      ascii;
    class       volVectorField;
    location    "0.3";
    object      U;
}
// * * * * * * * * * * * * * * * * * * * * * * * * * * * * * * * * * * * * * //

dimensions      [0 1 -1 0 0 0 0];

internalField   nonuniform List<vector> 
400
(
(3.85951e-05 -4.35461e-05 0)
(-0.00036846 0.000233062 0)
(-0.00150937 0.000447174 0)
(-0.00300584 0.000546336 0)
(-0.00463993 0.000574295 0)
(-0.00627824 0.000564461 0)
(-0.00783528 0.000531546 0)
(-0.0092443 0.000477116 0)
(-0.0104348 0.000395419 0)
(-0.0113219 0.000278507 0)
(-0.0118068 0.000120596 0)
(-0.0117876 -7.78073e-05 0)
(-0.0111809 -0.000305488 0)
(-0.00995353 -0.000536238 0)
(-0.00815762 -0.000728825 0)
(-0.00596202 -0.000832138 0)
(-0.00365878 -0.000797675 0)
(-0.00162383 -0.000595978 0)
(-0.000232726 -0.000240678 0)
(0.000128918 0.000106264 0)
(-0.000256703 0.000373245 0)
(-0.00169223 0.00162614 0)
(-0.00453116 0.00251847 0)
(-0.00805571 0.00295984 0)
(-0.0118353 0.00308465 0)
(-0.0155974 0.00300723 0)
(-0.019139 0.00278649 0)
(-0.022291 0.00243511 0)
(-0.024886 0.0019381 0)
(-0.0267411 0.00127251 0)
(-0.0276603 0.000425944 0)
(-0.0274555 -0.000585441 0)
(-0.0259856 -0.00169915 0)
(-0.0232139 -0.00279322 0)
(-0.0192708 -0.00368699 0)
(-0.014505 -0.00416593 0)
(-0.00948623 -0.00403716 0)
(-0.00492503 -0.00320523 0)
(-0.00155934 -0.00176085 0)
(-0.00013342 -0.000194821 0)
(-0.000526062 0.0016095 0)
(-0.00283678 0.00454927 0)
(-0.00701179 0.00649268 0)
(-0.012025 0.00746237 0)
(-0.0173102 0.00771617 0)
(-0.0225246 0.00747567 0)
(-0.0274013 0.00686489 0)
(-0.0317121 0.00591866 0)
(-0.0352336 0.00461622 0)
(-0.0377266 0.00292123 0)
(-0.038938 0.000821121 0)
(-0.0386249 -0.00163378 0)
(-0.0366025 -0.00429242 0)
(-0.0328151 -0.00687551 0)
(-0.0274208 -0.00897753 0)
(-0.0208659 -0.0101222 0)
(-0.0138988 -0.00988815 0)
(-0.00746963 -0.00808722 0)
(-0.00259839 -0.00494104 0)
(-0.000341267 -0.00127222 0)
(-0.000710463 0.00339069 0)
(-0.00368425 0.0085131 0)
(-0.008906 0.0117052 0)
(-0.0150603 0.013256 0)
(-0.0214727 0.013612 0)
(-0.0277642 0.0131287 0)
(-0.0336424 0.0120057 0)
(-0.0388555 0.0103027 0)
(-0.0431536 0.00799115 0)
(-0.0462627 0.00501687 0)
(-0.0478814 0.00136176 0)
(-0.0477024 -0.00289265 0)
(-0.0454627 -0.00750126 0)
(-0.0410304 -0.0120008 0)
(-0.0345221 -0.0157055 0)
(-0.0264257 -0.017791 0)
(-0.0176607 -0.0175109 0)
(-0.0094771 -0.0145234 0)
(-0.0032604 -0.00919703 0)
(-0.000411795 -0.00275284 0)
(-0.000836466 0.00556342 0)
(-0.00431279 0.0132579 0)
(-0.0103655 0.0178478 0)
(-0.0174346 0.0200082 0)
(-0.0247587 0.0204439 0)
(-0.0319439 0.0196764 0)
(-0.0386989 0.0179913 0)
(-0.0447756 0.0154717 0)
(-0.0499203 0.0120722 0)
(-0.0538366 0.00770347 0)
(-0.0561711 0.00231793 0)
(-0.0565251 -0.00399885 0)
(-0.054498 -0.0109293 0)
(-0.0497904 -0.017819 0)
(-0.0423717 -0.0236419 0)
(-0.0326923 -0.0270952 0)
(-0.0218538 -0.0269282 0)
(-0.0115555 -0.0225117 0)
(-0.00377651 -0.0143975 0)
(-0.000389318 -0.00445594 0)
(-0.000931042 0.00803373 0)
(-0.00481383 0.0186369 0)
(-0.0115649 0.0247715 0)
(-0.0194214 0.0275864 0)
(-0.0275546 0.0281111 0)
(-0.0355742 0.0270696 0)
(-0.0432136 0.0248472 0)
(-0.0502545 0.0215477 0)
(-0.0564633 0.0170932 0)
(-0.0615378 0.0113294 0)
(-0.0650737 0.00413355 0)
(-0.0665545 -0.00446288 0)
(-0.0653689 -0.0141296 0)
(-0.060919 -0.0240459 0)
(-0.0528547 -0.0327864 0)
(-0.0414237 -0.0383713 0)
(-0.0278661 -0.0387164 0)
(-0.0145341 -0.0326048 0)
(-0.00444005 -0.0207979 0)
(-0.000310606 -0.00632904 0)
(-0.00101246 0.0107514 0)
(-0.00525796 0.0245662 0)
(-0.0126449 0.0323921 0)
(-0.0212316 0.0359242 0)
(-0.0301385 0.0365819 0)
(-0.0389977 0.0353323 0)
(-0.0475935 0.032678 0)
(-0.0557685 0.0287437 0)
(-0.063345 0.0234008 0)
(-0.0700494 0.0163904 0)
(-0.0754491 0.00744631 0)
(-0.0789035 -0.00355362 0)
(-0.0795181 -0.0163771 0)
(-0.0762248 -0.0301496 0)
(-0.0680816 -0.043029 0)
(-0.0548166 -0.0521035 0)
(-0.0376095 -0.0538981 0)
(-0.0196373 -0.0459624 0)
(-0.0056706 -0.0291299 0)
(-0.000208908 -0.00846877 0)
(-0.00109181 0.0136994 0)
(-0.00569168 0.031015 0)
(-0.0136984 0.040676 0)
(-0.022995 0.044997 0)
(-0.0326618 0.0458573 0)
(-0.042374 0.044515 0)
(-0.0519968 0.0416157 0)
(-0.0614755 0.0373122 0)
(-0.0707414 0.031413 0)
(-0.0796135 0.0235136 0)
(-0.0876916 0.0131174 0)
(-0.0942337 -0.000198116 0)
(-0.0980234 -0.0165023 0)
(-0.0973322 -0.0351171 0)
(-0.0902419 -0.0538888 0)
(-0.075465 -0.0687242 0)
(-0.0536612 -0.0739361 0)
(-0.0287596 -0.0645885 0)
(-0.00820266 -0.0408916 0)
(-0.000155604 -0.0112131 0)
(-0.00117628 0.0168816 0)
(-0.00614508 0.0379876 0)
(-0.0147808 0.0496178 0)
(-0.024773 0.0547907 0)
(-0.0351657 0.0559293 0)
(-0.0456976 0.0546424 0)
(-0.0563486 0.0517567 0)
(-0.0672154 0.0474751 0)
(-0.0784082 0.0415471 0)
(-0.0899307 0.0333931 0)
(-0.101517 0.022194 0)
(-0.112397 0.00702413 0)
(-0.121049 -0.0128461 0)
(-0.124919 -0.0373106 0)
(-0.120704 -0.0642323 0)
(-0.105528 -0.0882291 0)
(-0.0788043 -0.100439 0)
(-0.0445531 -0.0914245 0)
(-0.0133811 -0.0587523 0)
(-0.000351155 -0.0153619 0)
(-0.0012743 0.0203169 0)
(-0.00664794 0.0455103 0)
(-0.0159363 0.0592172 0)
(-0.0265925 0.0652678 0)
(-0.037619 0.066734 0)
(-0.0488364 0.0656504 0)
(-0.0603688 0.0630781 0)
(-0.0725094 0.0593113 0)
(-0.0856141 0.0540687 0)
(-0.0999674 0.0465862 0)
(-0.115565 0.0356277 0)
(-0.131755 0.0195123 0)
(-0.146748 -0.00359617 0)
(-0.157117 -0.0346972 0)
(-0.158024 -0.072231 0)
(-0.144635 -0.109704 0)
(-0.114338 -0.134348 0)
(-0.0697701 -0.129837 0)
(-0.0235515 -0.0869315 0)
(-0.00134595 -0.0226438 0)
(-0.00140323 0.0240455 0)
(-0.00725321 0.0536335 0)
(-0.0172364 0.0694676 0)
(-0.0284935 0.0763398 0)
(-0.0399723 0.0781065 0)
(-0.051587 0.0773183 0)
(-0.0636213 0.0753336 0)
(-0.0765817 0.0725958 0)
(-0.0910998 0.0688423 0)
(-0.107795 0.0631375 0)
(-0.127017 0.0537443 0)
(-0.148361 0.0379821 0)
(-0.169906 0.0124623 0)
(-0.187606 -0.0256294 0)
(-0.195503 -0.0758171 0)
(-0.187045 -0.131015 0)
(-0.157121 -0.174638 0)
(-0.105085 -0.181978 0)
(-0.0420805 -0.131116 0)
(-0.00444537 -0.0365165 0)
(-0.00160153 0.0281538 0)
(-0.00807068 0.0624533 0)
(-0.0188299 0.0803573 0)
(-0.0305887 0.0878477 0)
(-0.0422226 0.0897422 0)
(-0.0537485 0.0892022 0)
(-0.0655956 0.0879401 0)
(-0.0784446 0.0866022 0)
(-0.0931464 0.0850005 0)
(-0.110599 0.0820559 0)
(-0.131487 0.0754796 0)
(-0.155758 0.0614253 0)
(-0.181749 0.034682 0)
(-0.205329 -0.0097452 0)
(-0.220531 -0.073239 0)
(-0.220215 -0.148499 0)
(-0.196934 -0.216749 0)
(-0.145449 -0.245879 0)
(-0.0711657 -0.196411 0)
(-0.0118555 -0.0627696 0)
(-0.00195026 0.0328252 0)
(-0.00931824 0.0721583 0)
(-0.0210085 0.0918815 0)
(-0.033129 0.0995482 0)
(-0.0444846 0.101168 0)
(-0.0552137 0.100588 0)
(-0.0658479 0.0998921 0)
(-0.0771312 0.099945 0)
(-0.0899714 0.100666 0)
(-0.105361 0.100872 0)
(-0.124183 0.0977586 0)
(-0.146774 0.0863636 0)
(-0.172214 0.0597869 0)
(-0.1977 0.0110808 0)
(-0.21829 -0.0629759 0)
(-0.227631 -0.15649 0)
(-0.217396 -0.251438 0)
(-0.177795 -0.312272 0)
(-0.106104 -0.281416 0)
(-0.0252491 -0.108508 0)
(-0.00261493 0.0384393 0)
(-0.0114061 0.0831046 0)
(-0.0242899 0.104052 0)
(-0.0365621 0.111094 0)
(-0.0470331 0.111723 0)
(-0.056036 0.110491 0)
(-0.0641552 0.109781 0)
(-0.0720494 0.110624 0)
(-0.0804682 0.113038 0)
(-0.0902621 0.115808 0)
(-0.10235 0.115834 0)
(-0.117535 0.107468 0)
(-0.136078 0.0827862 0)
(-0.157212 0.0336934 0)
(-0.178663 -0.0444126 0)
(-0.19656 -0.149227 0)
(-0.202803 -0.266931 0)
(-0.184848 -0.364855 0)
(-0.132218 -0.372906 0)
(-0.0420249 -0.179327 0)
(-0.00393227 0.045768 0)
(-0.0150856 0.0959169 0)
(-0.029519 0.116862 0)
(-0.041531 0.121963 0)
(-0.0502192 0.120535 0)
(-0.0563135 0.117705 0)
(-0.06045 0.115969 0)
(-0.0631008 0.116392 0)
(-0.0647155 0.119051 0)
(-0.0658496 0.122807 0)
(-0.067351 0.12466 0)
(-0.0704746 0.119014 0)
(-0.0767249 0.0979512 0)
(-0.0876476 0.0532556 0)
(-0.104408 -0.0209536 0)
(-0.126456 -0.126397 0)
(-0.147551 -0.256326 0)
(-0.155073 -0.387859 0)
(-0.133667 -0.44998 0)
(-0.0531465 -0.274139 0)
(-0.00660628 0.056401 0)
(-0.0217368 0.111574 0)
(-0.0379581 0.130086 0)
(-0.0486312 0.131249 0)
(-0.0539202 0.126388 0)
(-0.0553745 0.120813 0)
(-0.0537852 0.116814 0)
(-0.0494838 0.115314 0)
(-0.0426717 0.116389 0)
(-0.0336181 0.119055 0)
(-0.0230604 0.120846 0)
(-0.0125571 0.116933 0)
(-0.00441818 0.100335 0)
(-0.00195781 0.0632154 0)
(-0.00955428 -0.000934843 0)
(-0.0295591 -0.0962414 0)
(-0.0593341 -0.223904 0)
(-0.0893496 -0.375689 0)
(-0.105732 -0.494495 0)
(-0.0492026 -0.377799 0)
(-0.0121937 0.0736549 0)
(-0.0339429 0.131307 0)
(-0.0510283 0.142789 0)
(-0.0569373 0.13715 0)
(-0.0549698 0.127235 0)
(-0.0482544 0.11778 0)
(-0.0379738 0.110456 0)
(-0.0245249 0.105842 0)
(-0.00808734 0.103906 0)
(0.0112932 0.103904 0)
(0.0330773 0.10394 0)
(0.0557222 0.100422 0)
(0.0765138 0.0879581 0)
(0.0913953 0.0597502 0)
(0.0946986 0.00937263 0)
(0.0821053 -0.0685322 0)
(0.0510157 -0.180174 0)
(0.00559251 -0.332153 0)
(-0.051705 -0.494436 0)
(-0.0262112 -0.460015 0)
(-0.0243082 0.104261 0)
(-0.0559917 0.155171 0)
(-0.0655384 0.149997 0)
(-0.0541193 0.132794 0)
(-0.0344945 0.116374 0)
(-0.011687 0.102822 0)
(0.0129978 0.0923743 0)
(0.0392042 0.0849305 0)
(0.0669038 0.0801628 0)
(0.0962454 0.0774421 0)
(0.12703 0.0753917 0)
(0.158335 0.0716729 0)
(0.187701 0.0627523 0)
(0.211617 0.0437657 0)
(0.223278 0.00952413 0)
(0.218143 -0.0459758 0)
(0.188116 -0.130047 0)
(0.133109 -0.259246 0)
(0.033909 -0.436981 0)
(0.0229548 -0.479064 0)
(-0.0576143 0.183439 0)
(-0.0708007 0.166139 0)
(-0.0183527 0.121407 0)
(0.0376458 0.0968624 0)
(0.0889086 0.080047 0)
(0.135353 0.0669448 0)
(0.177896 0.0569628 0)
(0.217411 0.0497515 0)
(0.254704 0.0448008 0)
(0.290647 0.0414797 0)
(0.325549 0.0389835 0)
(0.359491 0.0360092 0)
(0.390303 0.0307674 0)
(0.416316 0.0206194 0)
(0.428693 0.00264638 0)
(0.425496 -0.0265489 0)
(0.390145 -0.0728831 0)
(0.323563 -0.154035 0)
(0.184213 -0.302525 0)
(0.127298 -0.389575 0)
(0.223342 0.131517 0)
(0.26829 0.109474 0)
(0.372444 0.07561 0)
(0.458544 0.0545484 0)
(0.520912 0.0411355 0)
(0.568562 0.0316282 0)
(0.607333 0.0246807 0)
(0.6401 0.0196683 0)
(0.668496 0.0161249 0)
(0.69398 0.0136325 0)
(0.717008 0.0118117 0)
(0.738363 0.0102281 0)
(0.755913 0.00825789 0)
(0.769876 0.00529868 0)
(0.772246 0.00012657 0)
(0.764535 -0.00719925 0)
(0.723448 -0.0198919 0)
(0.658646 -0.0403939 0)
(0.495252 -0.088732 0)
(0.363935 -0.144033 0)
)
;

boundaryField
{
    movingWall
    {
        type            fixedValue;
        value           uniform (1 0 0);
    }
    fixedWalls
    {
        type            noSlip;
    }
    frontAndBack
    {
        type            empty;
    }
}


// ************************************************************************* //
