/*--------------------------------*- C++ -*----------------------------------*\
| =========                 |                                                 |
| \\      /  F ield         | OpenFOAM: The Open Source CFD Toolbox           |
|  \\    /   O peration     | Version:  5.0                                   |
|   \\  /    A nd           | Web:      www.OpenFOAM.org                      |
|    \\/     M anipulation  |                                                 |
\*---------------------------------------------------------------------------*/
FoamFile
{
    version     2.0;
    format      ascii;
    class       volScalarField;
    location    "0.1";
    object      p;
}
// * * * * * * * * * * * * * * * * * * * * * * * * * * * * * * * * * * * * * //

dimensions      [0 2 -2 0 0 0 0];

internalField   nonuniform List<scalar> 
400
(
-6.1601e-09
-0.000861569
-0.00166049
-0.00204609
-0.00184752
-0.00101961
0.000409437
0.00236925
0.00476229
0.00746719
0.0103383
0.013206
0.0158819
0.0181694
0.0198858
0.0208925
0.0211366
0.020697
0.0198194
0.01893
0.000806913
-7.6615e-05
-0.000682954
-0.000874261
-0.000593766
0.000194825
0.00147953
0.0032111
0.00531341
0.00768544
0.0102019
0.012716
0.0150652
0.0170836
0.0186206
0.0195669
0.019888
0.0196468
0.0189692
0.0180648
0.00159561
0.000430517
-0.000219192
-0.00037058
-7.37781e-05
0.000685135
0.00189381
0.00351058
0.00547164
0.00768968
0.0100526
0.0124254
0.0146559
0.0165861
0.0180698
0.0189971
0.0193266
0.0190973
0.0183368
0.0171194
0.00205423
0.000516803
-0.000288512
-0.000482343
-0.000202991
0.000539792
0.00172698
0.00331808
0.00525606
0.00746234
0.00983218
0.0122341
0.0145142
0.016506
0.0180481
0.0190096
0.0193271
0.0190147
0.0180303
0.0163818
0.00197593
6.02366e-05
-0.000928196
-0.00118687
-0.000927331
-0.000179421
0.00103125
0.00266422
0.00466756
0.00696928
0.009469
0.0120342
0.0145015
0.0166853
0.0183951
0.0194644
0.0197963
0.0193782
0.0181152
0.0159868
0.00121045
-0.00109046
-0.00227292
-0.00259915
-0.00234704
-0.0015639
-0.000280862
0.00146203
0.00361795
0.00612135
0.00887544
0.0117442
0.0145496
0.0170775
0.0190943
0.0203805
0.0207898
0.0202734
0.0186843
0.0159936
-0.000370236
-0.00308577
-0.00447286
-0.00485987
-0.00459429
-0.00374113
-0.00233623
-0.000417854
0.00197425
0.00478331
0.00791832
0.0112411
0.0145567
0.0176149
0.020124
0.0217888
0.0223871
0.0218117
0.0198415
0.0164409
-0.00290809
-0.00609292
-0.00769789
-0.00813228
-0.00782728
-0.00686904
-0.00529792
-0.00314794
-0.000447619
0.00276062
0.00639813
0.0103316
0.0143521
0.0181706
0.0214219
0.0237052
0.024682
0.0241421
0.0217358
0.0174001
-0.00658548
-0.0103186
-0.012156
-0.0126168
-0.0122418
-0.0111456
-0.00937331
-0.00695153
-0.00389113
-0.000210856
0.00403561
0.00873166
0.0136702
0.0185285
0.0228575
0.0261148
0.0277853
0.0274777
0.024608
0.0190299
-0.0116477
-0.0160296
-0.0181068
-0.0185566
-0.0180706
-0.0168031
-0.0148051
-0.0120917
-0.00864803
-0.00445716
0.000469845
0.00605746
0.0121277
0.018348
0.0241898
0.0289349
0.0318103
0.0321171
0.0288478
0.0216506
-0.0184314
-0.0235771
-0.0258743
-0.0262371
-0.0255709
-0.0240861
-0.0218404
-0.0188329
-0.0150151
-0.0103212
-0.00469831
0.00185467
0.00923379
0.0171497
0.0250306
0.0319704
0.0368463
0.0384635
0.0350715
0.0258647
-0.0274121
-0.0334349
-0.0358602
-0.0359743
-0.0349924
-0.0332015
-0.030665
-0.0273611
-0.0232008
-0.0180581
-0.0117952
-0.00429424
0.00448107
0.0143736
0.0248608
0.0348945
0.0429358
0.0470462
0.0442333
0.0327639
-0.039297
-0.0462594
-0.0485534
-0.0480806
-0.0465109
-0.0442271
-0.0412897
-0.0376481
-0.0331674
-0.0276556
-0.0208734
-0.0125475
-0.00242799
0.00958486
0.0231824
0.0373298
0.050105
0.0585714
0.0577977
0.044301
-0.0552252
-0.0629914
-0.0645213
-0.0627831
-0.0601037
-0.0569594
-0.0533787
-0.0492631
-0.0444232
-0.0385968
-0.0314338
-0.022477
-0.0112085
0.00286973
0.0198896
0.0391325
0.0585378
0.0740548
0.0780244
0.0639654
-0.0772189
-0.0850175
-0.0843272
-0.0800321
-0.0753232
-0.0706835
-0.0660303
-0.0611696
-0.0558294
-0.0496621
-0.0421989
-0.0327867
-0.0206153
-0.00467906
0.0158234
0.0409155
0.0689553
0.095073
0.108375
0.0978436
-0.109136
-0.114385
-0.10829
-0.099148
-0.0909558
-0.0838907
-0.0775758
-0.0716102
-0.0655634
-0.058954
-0.0511746
-0.0413899
-0.0283977
-0.0107444
0.0132055
0.0446483
0.0831948
0.124135
0.153866
0.155651
-0.158718
-0.153947
-0.136101
-0.118494
-0.104791
-0.094182
-0.0856439
-0.0783268
-0.0714785
-0.0643798
-0.0562164
-0.045923
-0.0320026
-0.0124607
0.0152009
0.053643
0.104586
0.165097
0.221544
0.252269
-0.244872
-0.206623
-0.16518
-0.134461
-0.113145
-0.0982381
-0.087491
-0.0791501
-0.0718792
-0.064596
-0.0562253
-0.045459
-0.0304629
-0.00875536
0.0231099
0.0695551
0.135211
0.221263
0.321725
0.419084
-0.423757
-0.270703
-0.180601
-0.134054
-0.10659
-0.0896029
-0.0789689
-0.0716465
-0.0655786
-0.0593688
-0.0517987
-0.0414579
-0.0262769
-0.00353791
0.0311047
0.0841204
0.164579
0.283381
0.461917
0.72543
-0.769294
-0.330908
-0.152415
-0.0971107
-0.073777
-0.0622286
-0.0571509
-0.0547859
-0.052772
-0.0497903
-0.0448242
-0.0366833
-0.0238143
-0.00328245
0.0291068
0.0808436
0.166367
0.315802
0.610852
1.16777
)
;

boundaryField
{
    movingWall
    {
        type            zeroGradient;
    }
    fixedWalls
    {
        type            zeroGradient;
    }
    frontAndBack
    {
        type            empty;
    }
}


// ************************************************************************* //
