/*--------------------------------*- C++ -*----------------------------------*\
| =========                 |                                                 |
| \\      /  F ield         | OpenFOAM: The Open Source CFD Toolbox           |
|  \\    /   O peration     | Version:  5.0                                   |
|   \\  /    A nd           | Web:      www.OpenFOAM.org                      |
|    \\/     M anipulation  |                                                 |
\*---------------------------------------------------------------------------*/
FoamFile
{
    version     2.0;
    format      ascii;
    class       surfaceScalarField;
    location    "0.1";
    object      phi;
}
// * * * * * * * * * * * * * * * * * * * * * * * * * * * * * * * * * * * * * //

dimensions      [0 3 -1 0 0 0 0];

internalField   nonuniform List<scalar> 
760
(
2.52985e-09
-2.52978e-09
-3.42287e-08
3.67586e-08
-1.07051e-07
7.28223e-08
-2.00638e-07
9.35872e-08
-3.01357e-07
1.00719e-07
-3.98586e-07
9.72284e-08
-4.84383e-07
8.57972e-08
-5.52817e-07
6.84336e-08
-5.99336e-07
4.65196e-08
-6.20442e-07
2.11057e-08
-6.13701e-07
-6.74167e-09
-5.78088e-07
-3.5613e-08
-5.14586e-07
-6.35016e-08
-4.26922e-07
-8.76644e-08
-3.22249e-07
-1.04673e-07
-2.11517e-07
-1.10731e-07
-1.09167e-07
-1.0235e-07
-3.18761e-08
-7.7291e-08
4.73223e-09
-3.66081e-08
4.73232e-09
-3.63277e-08
3.37981e-08
-1.55369e-07
1.558e-07
-3.40505e-07
2.57958e-07
-5.655e-07
3.18581e-07
-8.03851e-07
3.39071e-07
-1.03282e-06
3.262e-07
-1.23424e-06
2.87211e-07
-1.39399e-06
2.28187e-07
-1.50128e-06
1.53814e-07
-1.54815e-06
6.79725e-08
-1.52953e-06
-2.53636e-08
-1.44391e-06
-1.21229e-07
-1.29448e-06
-2.12933e-07
-1.09041e-06
-2.9174e-07
-8.47946e-07
-3.47133e-07
-5.90731e-07
-3.67947e-07
-3.48483e-07
-3.44599e-07
-1.53424e-07
-2.7235e-07
-3.33669e-08
-1.56665e-07
-2.86349e-08
-7.58881e-08
1.09686e-07
-2.71511e-07
3.51423e-07
-5.5253e-07
5.38977e-07
-8.82194e-07
6.48244e-07
-1.22558e-06
6.82452e-07
-1.55259e-06
6.53218e-07
-1.83883e-06
5.73444e-07
-2.06506e-06
4.54423e-07
-2.21651e-06
3.05259e-07
-2.28229e-06
1.33755e-07
-2.25559e-06
-5.20667e-08
-2.13446e-06
-2.42358e-07
-1.92327e-06
-4.24123e-07
-1.63437e-06
-5.80634e-07
-1.28953e-06
-6.91981e-07
-9.20191e-07
-7.37282e-07
-5.65901e-07
-6.98889e-07
-2.69874e-07
-5.68378e-07
-7.18057e-08
-3.54733e-07
-1.00441e-07
-1.08155e-07
2.1784e-07
-3.72076e-07
6.15345e-07
-7.38749e-07
9.0565e-07
-1.15972e-06
1.06921e-06
-1.59235e-06
1.11509e-06
-2.00113e-06
1.06199e-06
-2.35754e-06
9.29856e-07
-2.63919e-06
7.36076e-07
-2.82871e-06
4.94778e-07
-2.91309e-06
2.1813e-07
-2.88378e-06
-8.13779e-08
-2.73768e-06
-3.88453e-07
-2.47892e-06
-6.82887e-07
-2.12103e-06
-9.38526e-07
-1.68901e-06
-1.124e-06
-1.22025e-06
-1.20605e-06
-7.63102e-07
-1.15603e-06
-3.72523e-07
-9.58957e-07
-1.02758e-07
-6.24499e-07
-2.03198e-07
-1.3585e-07
3.5369e-07
-4.62761e-07
9.42256e-07
-9.1008e-07
1.35297e-06
-1.41699e-06
1.57612e-06
-1.93304e-06
1.63114e-06
-2.4179e-06
1.54686e-06
-2.84009e-06
1.35205e-06
-3.17514e-06
1.07112e-06
-3.40385e-06
7.23491e-07
-3.51131e-06
3.25589e-07
-3.4868e-06
-1.05883e-07
-3.32494e-06
-5.50319e-07
-3.02787e-06
-9.79954e-07
-2.60838e-06
-1.35801e-06
-2.0931e-06
-1.63927e-06
-1.52469e-06
-1.77446e-06
-9.61381e-07
-1.71934e-06
-4.72638e-07
-1.4477e-06
-1.30703e-07
-9.66433e-07
-3.33901e-07
-1.62559e-07
5.16249e-07
-5.52237e-07
1.33193e-06
-1.08101e-06
1.88174e-06
-1.67501e-06
2.17013e-06
-2.27561e-06
2.23174e-06
-2.83797e-06
2.10922e-06
-3.3283e-06
1.84238e-06
-3.72079e-06
1.46361e-06
-3.99496e-06
9.97659e-07
-4.13396e-06
4.64589e-07
-4.12421e-06
-1.15627e-07
-3.95657e-06
-7.17963e-07
-3.62914e-06
-1.30738e-06
-3.1516e-06
-1.83556e-06
-2.55029e-06
-2.24058e-06
-1.87265e-06
-2.4521e-06
-1.18859e-06
-2.40341e-06
-5.86319e-07
-2.04997e-06
-1.61491e-07
-1.39126e-06
-4.95392e-07
-1.91478e-07
7.07728e-07
-6.49023e-07
1.78948e-06
-1.2656e-06
2.49832e-06
-1.95303e-06
2.85755e-06
-2.64401e-06
2.92272e-06
-3.28945e-06
2.75466e-06
-3.85403e-06
2.40696e-06
-4.31147e-06
1.92105e-06
-4.6406e-06
1.32679e-06
-4.82276e-06
6.46744e-07
-4.8408e-06
-9.7582e-08
-4.68017e-06
-8.78599e-07
-4.33233e-06
-1.65522e-06
-3.80064e-06
-2.36725e-06
-3.10812e-06
-2.9331e-06
-2.30549e-06
-3.25473e-06
-1.47588e-06
-3.23301e-06
-7.31906e-07
-2.79395e-06
-2.01357e-07
-1.92181e-06
-6.9675e-07
-2.25397e-07
9.33126e-07
-7.60741e-07
2.32482e-06
-1.47605e-06
3.21363e-06
-2.2666e-06
3.6481e-06
-3.05583e-06
3.71195e-06
-3.79103e-06
3.48986e-06
-4.4365e-06
3.05243e-06
-4.96685e-06
2.45139e-06
-5.36134e-06
1.72129e-06
-5.60004e-06
8.85438e-07
-5.66195e-06
-3.56724e-08
-5.5255e-06
-1.01505e-06
-5.17253e-06
-2.00819e-06
-4.59565e-06
-2.94413e-06
-3.80959e-06
-3.71916e-06
-2.86453e-06
-4.19979e-06
-1.85688e-06
-4.24066e-06
-9.30122e-07
-3.72071e-06
-2.57378e-07
-2.59455e-06
-9.54127e-07
-2.66891e-07
1.20002e-06
-8.94141e-07
2.95207e-06
-1.72219e-06
4.04168e-06
-2.62642e-06
4.55233e-06
-3.52054e-06
4.60607e-06
-4.34934e-06
4.31866e-06
-5.07874e-06
3.78183e-06
-5.68635e-06
3.059e-06
-6.15385e-06
2.1888e-06
-6.46152e-06
1.1931e-06
-6.585e-06
8.7807e-08
-6.49487e-06
-1.10517e-06
-6.16027e-06
-2.34279e-06
-5.55759e-06
-3.54682e-06
-4.68569e-06
-4.59106e-06
-3.58656e-06
-5.29891e-06
-2.3662e-06
-5.46102e-06
-1.20457e-06
-4.88234e-06
-3.38179e-07
-3.46095e-06
-1.29231e-06
-3.18745e-07
1.51876e-06
-1.05564e-06
3.68897e-06
-2.01147e-06
4.9975e-06
-3.0373e-06
5.57816e-06
-4.03699e-06
5.60576e-06
-4.95505e-06
5.23671e-06
-5.76202e-06
4.5888e-06
-6.4418e-06
3.73878e-06
-6.98161e-06
2.72861e-06
-7.36473e-06
1.57622e-06
-7.56542e-06
2.88497e-07
-7.5471e-06
-1.12349e-06
-7.26413e-06
-2.62576e-06
-6.67094e-06
-4.14e-06
-5.74046e-06
-5.52154e-06
-4.49346e-06
-6.54591e-06
-3.0347e-06
-6.91978e-06
-1.58134e-06
-6.33571e-06
-4.54773e-07
-4.58751e-06
-1.74708e-06
-3.84666e-07
1.90343e-06
-1.25219e-06
4.55649e-06
-2.34888e-06
6.09419e-06
-3.49625e-06
6.72553e-06
-4.58947e-06
6.69899e-06
-5.57664e-06
6.22388e-06
-6.43753e-06
5.4497e-06
-7.16683e-06
4.46808e-06
-7.76177e-06
3.32354e-06
-8.21298e-06
2.02743e-06
-8.49762e-06
5.73136e-07
-8.57487e-06
-1.04625e-06
-8.38512e-06
-2.8155e-06
-7.85677e-06
-4.66835e-06
-6.9256e-06
-6.45271e-06
-5.57223e-06
-7.89928e-06
-3.87809e-06
-8.61392e-06
-2.08598e-06
-8.12782e-06
-6.21343e-07
-6.05215e-06
-2.36842e-06
-4.70542e-07
2.37397e-06
-1.49256e-06
5.57851e-06
-2.73621e-06
7.33784e-06
-3.98867e-06
7.97799e-06
-5.14064e-06
7.85095e-06
-6.15061e-06
7.23385e-06
-7.01422e-06
6.31331e-06
-7.74286e-06
5.19672e-06
-8.34932e-06
3.93e-06
-8.83741e-06
2.51552e-06
-9.19351e-06
9.29243e-07
-9.37924e-06
-8.60518e-07
-9.32637e-06
-2.86837e-06
-8.93804e-06
-5.05668e-06
-8.10431e-06
-7.28644e-06
-6.74283e-06
-9.26076e-06
-4.8754e-06
-1.04813e-05
-2.73564e-06
-1.02676e-05
-8.55771e-07
-7.93201e-06
-3.22419e-06
-5.86889e-07
2.96086e-06
-1.78904e-06
6.78066e-06
-3.16958e-06
8.71838e-06
-4.48051e-06
9.28893e-06
-5.61906e-06
8.9895e-06
-6.56592e-06
8.18071e-06
-7.34194e-06
7.08932e-06
-7.98222e-06
5.837e-06
-8.52092e-06
4.4687e-06
-8.98117e-06
2.97577e-06
-9.36629e-06
1.31436e-06
-9.65022e-06
-5.76586e-07
-9.76773e-06
-2.75087e-06
-9.60623e-06
-5.21817e-06
-9.01035e-06
-7.88232e-06
-7.81513e-06
-1.0456e-05
-5.93412e-06
-1.23624e-05
-3.52246e-06
-1.26792e-05
-1.1791e-06
-1.02754e-05
-4.4033e-06
-7.53558e-07
3.71442e-06
-2.15913e-06
8.18624e-06
-3.63181e-06
1.01911e-05
-4.90127e-06
1.05584e-05
-5.896e-06
9.98422e-06
-6.63862e-06
8.92333e-06
-7.18761e-06
7.63831e-06
-7.60873e-06
6.25813e-06
-7.96162e-06
4.8216e-06
-8.29271e-06
3.30685e-06
-8.62864e-06
1.65029e-06
-8.96632e-06
-2.389e-07
-9.26131e-06
-2.45588e-06
-9.40587e-06
-5.07361e-06
-9.21658e-06
-8.07161e-06
-8.44257e-06
-1.123e-05
-6.84115e-06
-1.39638e-05
-4.38213e-06
-1.51383e-05
-1.61089e-06
-1.30466e-05
-6.01419e-06
-1.00759e-06
4.72201e-06
-2.62256e-06
9.8012e-06
-4.06926e-06
1.16378e-05
-5.10502e-06
1.15942e-05
-5.7397e-06
1.06189e-05
-6.06776e-06
9.25139e-06
-6.19902e-06
7.76958e-06
-6.23354e-06
6.29264e-06
-6.25503e-06
4.8431e-06
-6.33092e-06
3.38274e-06
-6.5121e-06
1.83147e-06
-6.8245e-06
7.35023e-08
-7.26397e-06
-2.01642e-06
-7.75747e-06
-4.58011e-06
-8.13418e-06
-7.69491e-06
-8.0885e-06
-1.12757e-05
-7.20266e-06
-1.48496e-05
-5.13695e-06
-1.7204e-05
-2.15045e-06
-1.60331e-05
-8.16464e-06
-1.40879e-06
6.1308e-06
-3.17159e-06
1.1564e-05
-4.31974e-06
1.27859e-05
-4.77699e-06
1.20514e-05
-4.72213e-06
1.0564e-05
-4.35637e-06
8.88563e-06
-3.84705e-06
7.26026e-06
-3.32099e-06
5.76658e-06
-2.87323e-06
4.39533e-06
-2.57886e-06
3.08837e-06
-2.50169e-06
1.75431e-06
-2.70024e-06
2.72047e-07
-3.21007e-06
-1.50659e-06
-4.03111e-06
-3.75907e-06
-5.06382e-06
-6.66219e-06
-6.02793e-06
-1.03116e-05
-6.38346e-06
-1.44941e-05
-5.40057e-06
-1.81869e-05
-2.72074e-06
-1.87129e-05
-1.08854e-05
-2.01381e-06
8.14461e-06
-3.62848e-06
1.31787e-05
-3.8956e-06
1.3053e-05
-3.21142e-06
1.13672e-05
-2.03289e-06
9.38551e-06
-6.75772e-07
7.52851e-06
6.6086e-07
5.92363e-06
1.85642e-06
4.57102e-06
2.83526e-06
3.41649e-06
3.54087e-06
2.38276e-06
3.91727e-06
1.3779e-06
3.89672e-06
2.92603e-07
3.39988e-06
-1.00975e-06
2.34515e-06
-2.70434e-06
7.00836e-07
-5.01788e-06
-1.4002e-06
-8.21052e-06
-3.46337e-06
-1.24309e-05
-4.44539e-06
-1.72048e-05
-3.05732e-06
-2.0101e-05
-1.39427e-05
-2.70946e-06
1.08541e-05
-3.10785e-06
1.35771e-05
-1.38221e-06
1.13274e-05
1.17424e-06
8.81077e-06
3.84819e-06
6.71157e-06
6.32362e-06
5.05308e-06
8.46976e-06
3.77749e-06
1.02426e-05
2.79818e-06
1.16333e-05
2.02574e-06
1.26368e-05
1.3793e-06
1.3231e-05
7.83717e-07
1.33612e-05
1.62364e-07
1.2933e-05
-5.81566e-07
1.17975e-05
-1.5688e-06
9.77256e-06
-2.99293e-06
6.7242e-06
-5.16216e-06
2.81736e-06
-8.52407e-06
-9.81894e-07
-1.34056e-05
-2.49652e-06
-1.85864e-05
-1.64392e-05
-1.69631e-06
1.25504e-05
1.87129e-06
1.00095e-05
6.95768e-06
6.241e-06
1.16156e-05
4.15285e-06
1.54807e-05
2.84643e-06
1.85745e-05
1.95932e-06
2.09959e-05
1.35605e-06
2.28525e-05
9.41616e-07
2.42337e-05
6.44534e-07
2.51986e-05
4.14418e-07
2.57687e-05
2.13625e-07
2.59166e-05
1.44204e-08
2.55692e-05
-2.34187e-07
2.45615e-05
-5.61088e-07
2.26276e-05
-1.05901e-06
1.93663e-05
-1.90088e-06
1.43377e-05
-3.49545e-06
7.60955e-06
-6.67745e-06
1.25125e-06
-1.22281e-05
-1.5188e-05
1.25504e-05
2.25598e-05
2.88008e-05
3.29537e-05
3.58001e-05
3.77594e-05
3.91155e-05
4.00571e-05
4.07016e-05
4.11161e-05
4.13297e-05
4.13441e-05
4.11099e-05
4.05488e-05
3.94898e-05
3.75889e-05
3.40935e-05
2.74161e-05
1.5188e-05
)
;

boundaryField
{
    movingWall
    {
        type            calculated;
        value           uniform 0;
    }
    fixedWalls
    {
        type            calculated;
        value           uniform 0;
    }
    frontAndBack
    {
        type            empty;
        value           nonuniform 0();
    }
}


// ************************************************************************* //
