/*--------------------------------*- C++ -*----------------------------------*\
| =========                 |                                                 |
| \\      /  F ield         | OpenFOAM: The Open Source CFD Toolbox           |
|  \\    /   O peration     | Version:  5.0                                   |
|   \\  /    A nd           | Web:      www.OpenFOAM.org                      |
|    \\/     M anipulation  |                                                 |
\*---------------------------------------------------------------------------*/
FoamFile
{
    version     2.0;
    format      ascii;
    class       volVectorField;
    location    "0.1";
    object      U;
}
// * * * * * * * * * * * * * * * * * * * * * * * * * * * * * * * * * * * * * //

dimensions      [0 1 -1 0 0 0 0];

internalField   nonuniform List<vector> 
400
(
(0.000116076 -0.000119851 0)
(-0.000152022 0.000181931 0)
(-0.0013018 0.000482814 0)
(-0.00302207 0.000654805 0)
(-0.00501416 0.000715277 0)
(-0.00703269 0.000693999 0)
(-0.00889293 0.000614816 0)
(-0.0104579 0.00049375 0)
(-0.0116245 0.000340483 0)
(-0.0123128 0.00016151 0)
(-0.0124629 -3.66658e-05 0)
(-0.0120385 -0.000244754 0)
(-0.0110365 -0.000448388 0)
(-0.00950155 -0.000626845 0)
(-0.00754068 -0.00075308 0)
(-0.00533553 -0.000795821 0)
(-0.0031438 -0.000724377 0)
(-0.00128272 -0.000515969 0)
(-9.38267e-05 -0.000178038 0)
(0.000144908 0.000136638 0)
(-0.000176351 0.000140361 0)
(-0.00155982 0.00155063 0)
(-0.00469726 0.00281043 0)
(-0.00893999 0.00355927 0)
(-0.0136908 0.00382117 0)
(-0.0184591 0.00368952 0)
(-0.0228381 0.00325679 0)
(-0.0265074 0.00259631 0)
(-0.0292207 0.00176137 0)
(-0.0307917 0.000794112 0)
(-0.0310888 -0.000262533 0)
(-0.0300421 -0.00135334 0)
(-0.027663 -0.00240178 0)
(-0.0240695 -0.00330552 0)
(-0.0195126 -0.00393891 0)
(-0.0143938 -0.00416578 0)
(-0.00925394 -0.00386531 0)
(-0.00472303 -0.00297106 0)
(-0.0014774 -0.00154871 0)
(-0.000131567 -6.99996e-05 0)
(-0.000490392 0.00128696 0)
(-0.0029692 0.00472516 0)
(-0.00788565 0.00751352 0)
(-0.0141996 0.00916739 0)
(-0.0210922 0.00971534 0)
(-0.0279267 0.00933108 0)
(-0.0341638 0.00820854 0)
(-0.0393691 0.00651556 0)
(-0.043206 0.00438519 0)
(-0.0454193 0.00192996 0)
(-0.0458303 -0.000734602 0)
(-0.044346 -0.00346553 0)
(-0.0409833 -0.00607311 0)
(-0.035902 -0.00831205 0)
(-0.0294386 -0.00988975 0)
(-0.022129 -0.0104989 0)
(-0.0146899 -0.00987994 0)
(-0.00795347 -0.00791227 0)
(-0.0028635 -0.00475085 0)
(-0.000429025 -0.00114452 0)
(-0.000736138 0.00315111 0)
(-0.00416463 0.00936891 0)
(-0.010681 0.0140566 0)
(-0.0188259 0.0167549 0)
(-0.0275595 0.0175656 0)
(-0.0361285 0.0167783 0)
(-0.0439038 0.0147128 0)
(-0.0503798 0.0116516 0)
(-0.0551632 0.00782453 0)
(-0.0579525 0.0034303 0)
(-0.0585301 -0.00132667 0)
(-0.0567732 -0.00619624 0)
(-0.0526825 -0.0108498 0)
(-0.0464241 -0.0148652 0)
(-0.0383762 -0.0177405 0)
(-0.0291642 -0.0189495 0)
(-0.0196492 -0.0180468 0)
(-0.0108607 -0.0148163 0)
(-0.00404165 -0.00945852 0)
(-0.000649794 -0.00290652 0)
(-0.000936038 0.00559926 0)
(-0.00521693 0.0152912 0)
(-0.0132326 0.0222108 0)
(-0.0231051 0.0260488 0)
(-0.0335651 0.0270687 0)
(-0.0437481 0.0257294 0)
(-0.0529549 0.0225081 0)
(-0.0606322 0.0178178 0)
(-0.0663504 0.0119932 0)
(-0.069772 0.00532166 0)
(-0.070639 -0.00190235 0)
(-0.0687825 -0.00931773 0)
(-0.0641576 -0.0164456 0)
(-0.0568982 -0.0226624 0)
(-0.0473854 -0.027215 0)
(-0.0363084 -0.029299 0)
(-0.0246744 -0.0282121 0)
(-0.0137503 -0.0235687 0)
(-0.0051479 -0.0155503 0)
(-0.00082977 -0.00523606 0)
(-0.00112328 0.00857962 0)
(-0.00624271 0.0224452 0)
(-0.0157663 0.0319542 0)
(-0.0273883 0.0370393 0)
(-0.0395975 0.0382174 0)
(-0.0514172 0.0361839 0)
(-0.0620888 0.0316127 0)
(-0.0710281 0.0250663 0)
(-0.0777826 0.0169867 0)
(-0.0819852 0.00774262 0)
(-0.0833306 -0.00229319 0)
(-0.0815826 -0.0126583 0)
(-0.076614 -0.0227224 0)
(-0.0684795 -0.0316385 0)
(-0.0575165 -0.0383504 0)
(-0.0444495 -0.04169 0)
(-0.0304409 -0.0405868 0)
(-0.0170561 -0.0343742 0)
(-0.00638675 -0.0231393 0)
(-0.0010188 -0.00812969 0)
(-0.00132624 0.0121052 0)
(-0.00735372 0.0308837 0)
(-0.0185066 0.0433678 0)
(-0.0320105 0.0498161 0)
(-0.0460907 0.051101 0)
(-0.0596582 0.0482333 0)
(-0.0719074 0.0421324 0)
(-0.0822407 0.0335307 0)
(-0.0901996 0.0229756 0)
(-0.0953956 0.0108997 0)
(-0.0974714 -0.00227213 0)
(-0.0961002 -0.0160022 0)
(-0.0910293 -0.029522 0)
(-0.0821741 -0.0417463 0)
(-0.0697605 -0.0512552 0)
(-0.0544957 -0.0564002 0)
(-0.0376902 -0.0555792 0)
(-0.0212759 -0.0476711 0)
(-0.0079885 -0.0325571 0)
(-0.00126773 -0.0117036 0)
(-0.00156918 0.016249 0)
(-0.00865007 0.0407595 0)
(-0.0216543 0.0566295 0)
(-0.0372551 0.0645482 0)
(-0.0533821 0.0658684 0)
(-0.0688382 0.0620143 0)
(-0.0827916 0.0542097 0)
(-0.0946586 0.0433797 0)
(-0.104001 0.0301705 0)
(-0.110427 0.0150502 0)
(-0.113532 -0.00154736 0)
(-0.112881 -0.0190562 0)
(-0.10805 -0.0366071 0)
(-0.0987391 -0.0528795 0)
(-0.0849638 -0.0660308 0)
(-0.0673158 -0.0737861 0)
(-0.0472003 -0.0737768 0)
(-0.0269664 -0.0641533 0)
(-0.0102183 -0.0443897 0)
(-0.00163439 -0.0162054 0)
(-0.00187526 0.021137 0)
(-0.0102242 0.0523165 0)
(-0.0253823 0.0719968 0)
(-0.0433385 0.0814517 0)
(-0.0616828 0.0826823 0)
(-0.0791241 0.0776524 0)
(-0.0948402 0.0679627 0)
(-0.108305 0.0547572 0)
(-0.119142 0.0387706 0)
(-0.126994 0.0204668 0)
(-0.13143 0.00022699 0)
(-0.131905 -0.0214293 0)
(-0.12779 -0.0436046 0)
(-0.118483 -0.0647833 0)
(-0.103654 -0.082664 0)
(-0.0836153 -0.0941824 0)
(-0.0597268 -0.0958867 0)
(-0.034741 -0.0847684 0)
(-0.0133962 -0.0595129 0)
(-0.00219399 -0.0220383 0)
(-0.00227224 0.0269477 0)
(-0.0121734 0.0658765 0)
(-0.0298442 0.0897721 0)
(-0.0504007 0.100731 0)
(-0.0710433 0.101642 0)
(-0.0904198 0.0951711 0)
(-0.107776 0.083388 0)
(-0.122708 0.0676856 0)
(-0.134968 0.0488736 0)
(-0.144291 0.0273635 0)
(-0.150272 0.00340427 0)
(-0.152288 -0.0226382 0)
(-0.149492 -0.049957 0)
(-0.14091 -0.0769434 0)
(-0.125708 -0.100861 0)
(-0.103674 -0.117717 0)
(-0.0758502 -0.122584 0)
(-0.0452277 -0.110651 0)
(-0.0179168 -0.0791156 0)
(-0.00305401 -0.029802 0)
(-0.00280189 0.0339221 0)
(-0.01462 0.0818312 0)
(-0.0351861 0.110255 0)
(-0.0584885 0.122496 0)
(-0.0812958 0.122669 0)
(-0.102264 0.114365 0)
(-0.1208 0.100225 0)
(-0.136714 0.081926 0)
(-0.149977 0.0603382 0)
(-0.160507 0.035767 0)
(-0.16801 0.00823809 0)
(-0.171861 -0.0221704 0)
(-0.171043 -0.0549149 0)
(-0.164185 -0.088483 0)
(-0.149808 -0.11984 0)
(-0.126873 -0.14402 0)
(-0.0956503 -0.154222 0)
(-0.0589354 -0.142942 0)
(-0.0242549 -0.10468 0)
(-0.00437569 -0.0403503 0)
(-0.00353807 0.042393 0)
(-0.017746 0.100636 0)
(-0.0415587 0.133668 0)
(-0.0675125 0.146627 0)
(-0.0919449 0.14535 0)
(-0.11366 0.13462 0)
(-0.132369 0.117772 0)
(-0.148224 0.0967943 0)
(-0.161526 0.0725984 0)
(-0.172486 0.0453332 0)
(-0.181043 0.0147109 0)
(-0.186705 -0.0196229 0)
(-0.188414 -0.0576053 0)
(-0.184479 -0.0981092 0)
(-0.172721 -0.138108 0)
(-0.150981 -0.17183 0)
(-0.118139 -0.190341 0)
(-0.0759575 -0.182389 0)
(-0.0329331 -0.137859 0)
(-0.0064045 -0.0548691 0)
(-0.00462287 0.0528527 0)
(-0.0218521 0.122802 0)
(-0.0491202 0.160027 0)
(-0.0771438 0.17257 0)
(-0.101958 0.168688 0)
(-0.122785 0.154679 0)
(-0.139865 0.134664 0)
(-0.153851 0.11095 0)
(-0.165494 0.0844589 0)
(-0.175413 0.0551384 0)
(-0.183914 0.0223168 0)
(-0.19081 -0.0149167 0)
(-0.195226 -0.0572022 0)
(-0.195387 -0.104168 0)
(-0.188545 -0.153301 0)
(-0.171281 -0.198541 0)
(-0.140424 -0.22896 0)
(-0.0954236 -0.228624 0)
(-0.0443996 -0.180121 0)
(-0.00950555 -0.0749626 0)
(-0.00633897 0.06609 0)
(-0.0274557 0.148863 0)
(-0.0579891 0.18889 0)
(-0.0865602 0.19898 0)
(-0.109343 0.190761 0)
(-0.126487 0.172336 0)
(-0.139086 0.148638 0)
(-0.148473 0.122218 0)
(-0.155952 0.0939462 0)
(-0.162616 0.0635266 0)
(-0.169228 0.0298768 0)
(-0.17607 -0.00853064 0)
(-0.182734 -0.0531978 0)
(-0.187758 -0.104874 0)
(-0.188258 -0.162227 0)
(-0.179775 -0.219863 0)
(-0.156684 -0.265737 0)
(-0.114603 -0.279022 0)
(-0.0586814 -0.231964 0)
(-0.0141679 -0.102679 0)
(-0.00923341 0.0834525 0)
(-0.0354003 0.179232 0)
(-0.0679904 0.218859 0)
(-0.0937899 0.223151 0)
(-0.110263 0.208237 0)
(-0.11935 0.184133 0)
(-0.123417 0.156381 0)
(-0.124623 0.127566 0)
(-0.12482 0.0983574 0)
(-0.12552 0.0681661 0)
(-0.127914 0.0355292 0)
(-0.132805 -0.00163169 0)
(-0.140492 -0.0457177 0)
(-0.150313 -0.0987702 0)
(-0.159998 -0.161304 0)
(-0.164871 -0.229922 0)
(-0.157173 -0.293358 0)
(-0.127573 -0.327268 0)
(-0.0745035 -0.29145 0)
(-0.0208274 -0.140302 0)
(-0.0142262 0.107356 0)
(-0.0467044 0.21371 0)
(-0.0776013 0.246558 0)
(-0.0939523 0.240105 0)
(-0.0970763 0.215828 0)
(-0.0919249 0.185171 0)
(-0.082449 0.153658 0)
(-0.0715595 0.123431 0)
(-0.0614215 0.0946933 0)
(-0.0536869 0.0664882 0)
(-0.0497157 0.0370576 0)
(-0.0507259 0.00398279 0)
(-0.0577201 -0.0357368 0)
(-0.071192 -0.0853273 0)
(-0.090433 -0.147478 0)
(-0.112017 -0.222132 0)
(-0.127657 -0.301654 0)
(-0.123486 -0.36208 0)
(-0.0873792 -0.352063 0)
(-0.0290911 -0.189987 0)
(-0.022258 0.142554 0)
(-0.0609474 0.249754 0)
(-0.0801124 0.26406 0)
(-0.0745837 0.24081 0)
(-0.054132 0.205566 0)
(-0.0274985 0.169199 0)
(0.000212006 0.135878 0)
(0.0260003 0.106538 0)
(0.0480435 0.0805756 0)
(0.0651242 0.0566126 0)
(0.0761901 0.0327583 0)
(0.0800429 0.00661161 0)
(0.0752144 -0.0248491 0)
(0.0600048 -0.0653997 0)
(0.0329678 -0.119452 0)
(-0.00547679 -0.190891 0)
(-0.0496476 -0.2788 0)
(-0.0847072 -0.366457 0)
(-0.0864716 -0.399692 0)
(-0.035601 -0.25322 0)
(-0.0311189 0.196966 0)
(-0.068665 0.276833 0)
(-0.0514091 0.253395 0)
(-0.0043087 0.209813 0)
(0.050351 0.166898 0)
(0.102882 0.129911 0)
(0.149527 0.0997579 0)
(0.188859 0.0755295 0)
(0.22052 0.0556997 0)
(0.244491 0.0386093 0)
(0.260585 0.0225248 0)
(0.268093 0.00551438 0)
(0.26559 -0.0148013 0)
(0.250657 -0.0416042 0)
(0.219852 -0.0795092 0)
(0.169579 -0.13503 0)
(0.0989834 -0.215253 0)
(0.015551 -0.318935 0)
(-0.049697 -0.406759 0)
(-0.0284142 -0.321594 0)
(-0.0105384 0.255287 0)
(-0.0140865 0.261484 0)
(0.0831328 0.190445 0)
(0.187634 0.136379 0)
(0.274306 0.0980457 0)
(0.343644 0.070336 0)
(0.398398 0.0504348 0)
(0.44081 0.0360797 0)
(0.472867 0.0253908 0)
(0.496113 0.016898 0)
(0.511402 0.00939751 0)
(0.51871 0.00177058 0)
(0.517114 -0.00715974 0)
(0.504301 -0.0191856 0)
(0.476131 -0.0371321 0)
(0.426119 -0.0664057 0)
(0.3451 -0.117637 0)
(0.22175 -0.206335 0)
(0.0748936 -0.327055 0)
(0.0354174 -0.335112 0)
(0.280934 0.142171 0)
(0.360455 0.124699 0)
(0.508368 0.0787545 0)
(0.621066 0.0490405 0)
(0.692041 0.0310591 0)
(0.73864 0.0197638 0)
(0.770806 0.0126287 0)
(0.793232 0.0081052 0)
(0.808731 0.00514532 0)
(0.819089 0.00305946 0)
(0.825264 0.0013803 0)
(0.827542 -0.000249259 0)
(0.825495 -0.00207707 0)
(0.817855 -0.00460748 0)
(0.802221 -0.00855354 0)
(0.773753 -0.0155152 0)
(0.722273 -0.0296822 0)
(0.621176 -0.0611401 0)
(0.446784 -0.122451 0)
(0.323679 -0.154949 0)
)
;

boundaryField
{
    movingWall
    {
        type            fixedValue;
        value           uniform (1 0 0);
    }
    fixedWalls
    {
        type            noSlip;
    }
    frontAndBack
    {
        type            empty;
    }
}


// ************************************************************************* //
