/*--------------------------------*- C++ -*----------------------------------*\
| =========                 |                                                 |
| \\      /  F ield         | OpenFOAM: The Open Source CFD Toolbox           |
|  \\    /   O peration     | Version:  5.0                                   |
|   \\  /    A nd           | Web:      www.OpenFOAM.org                      |
|    \\/     M anipulation  |                                                 |
\*---------------------------------------------------------------------------*/
FoamFile
{
    version     2.0;
    format      ascii;
    class       volScalarField;
    location    "0.4";
    object      p;
}
// * * * * * * * * * * * * * * * * * * * * * * * * * * * * * * * * * * * * * //

dimensions      [0 2 -2 0 0 0 0];

internalField   nonuniform List<scalar> 
400
(
-1.6779e-08
-0.000161584
-0.000249966
-0.000234971
-0.000102011
0.000152536
0.000528949
0.00102727
0.00164481
0.00237058
0.00317908
0.00402559
0.00484363
0.00555251
0.00607229
0.00634808
0.00637524
0.0062121
0.00596594
0.00577516
0.000160194
-6.48167e-06
-6.05047e-05
-1.09508e-05
0.000137391
0.000387998
0.000743506
0.00120548
0.00177219
0.00243402
0.00316823
0.0039356
0.00467739
0.00532157
0.00579718
0.0060564
0.00609758
0.0059749
0.00577845
0.0055912
0.000245011
2.96089e-05
-2.65703e-05
3.25744e-05
0.000182853
0.000424861
0.000762221
0.00119899
0.00173712
0.00237155
0.00308442
0.00384003
0.00458055
0.00523047
0.00571081
0.00596439
0.00598455
0.00582843
0.00558888
0.00533802
0.000194757
-7.94639e-05
-0.000153193
-9.86631e-05
4.36108e-05
0.000271452
0.00058968
0.00100596
0.00152788
0.00215722
0.00288276
0.00367271
0.00446729
0.00517912
0.0057085
0.00597468
0.00595684
0.00571878
0.00537738
0.00502632
-4.51961e-05
-0.000371025
-0.000465285
-0.000422717
-0.000296291
-8.95512e-05
0.000204459
0.000598063
0.00110599
0.00173917
0.00249585
0.00335056
0.00424346
0.00507089
0.00570119
0.00601316
0.00595707
0.00560136
0.00510502
0.0046114
-0.000515237
-0.000884554
-0.00100106
-0.000977523
-0.000876397
-0.000701624
-0.000443631
-8.49924e-05
0.000397195
0.00102555
0.00181213
0.00274349
0.00377243
0.00477766
0.00558553
0.00600986
0.00594336
0.00544366
0.0047216
0.00400089
-0.00124339
-0.00165023
-0.00179207
-0.00179686
-0.00173504
-0.00161116
-0.00141389
-0.00112185
-0.000704704
-0.000126822
0.000643527
0.00161617
0.00279027
0.00403343
0.00513257
0.0058043
0.00582712
0.00519953
0.00416618
0.00306083
-0.00224869
-0.00268929
-0.00286164
-0.00290763
-0.00290595
-0.00286379
-0.00277131
-0.00260758
-0.00233998
-0.00192319
-0.00129654
-0.000389905
0.000816898
0.00230098
0.00383304
0.00500393
0.0053789
0.00477559
0.00337865
0.00162048
-0.00354179
-0.00401427
-0.00422397
-0.00432716
-0.00441317
-0.00449645
-0.00457544
-0.00463966
-0.00466727
-0.00461721
-0.00440965
-0.00390588
-0.00293936
-0.00136948
0.000690362
0.00274432
0.00402642
0.00392565
0.00229511
-0.000510384
-0.00512393
-0.00562786
-0.00588099
-0.0060565
-0.00625958
-0.0065194
-0.00685368
-0.00727902
-0.00780841
-0.00843529
-0.00908777
-0.00955197
-0.00942831
-0.00825683
-0.00580275
-0.00247322
0.000611473
0.0020544
0.000772858
-0.00345691
-0.00698677
-0.0075227
-0.00781916
-0.00807214
-0.00841147
-0.00889111
-0.00956171
-0.0104881
-0.0117503
-0.0134197
-0.015476
-0.0176461
-0.0192468
-0.0192967
-0.0169993
-0.0123107
-0.00645817
-0.00187694
-0.00152607
-0.00700644
-0.00911547
-0.00968423
-0.0100082
-0.0103184
-0.0107833
-0.0114924
-0.0125413
-0.0140612
-0.0162275
-0.0192279
-0.0231337
-0.0276432
-0.0317875
-0.033958
-0.0327008
-0.0271374
-0.0180977
-0.00883604
-0.00492484
-0.010078
-0.0114993
-0.0120995
-0.0124038
-0.0127042
-0.0132296
-0.0141141
-0.0155019
-0.0175952
-0.0206717
-0.0250425
-0.0308769
-0.0378613
-0.0448202
-0.0496629
-0.0501672
-0.044617
-0.0329642
-0.0184487
-0.00890636
-0.0105523
-0.0141562
-0.0147756
-0.0149561
-0.0151069
-0.0155527
-0.0164745
-0.0180563
-0.0205564
-0.0243311
-0.029781
-0.0371373
-0.0460687
-0.0552897
-0.0625182
-0.0648229
-0.0600344
-0.0470467
-0.0280303
-0.0115007
-0.00627823
-0.017185
-0.0177723
-0.0176217
-0.0173837
-0.0175297
-0.0182754
-0.0198207
-0.0224508
-0.0265581
-0.0325706
-0.0407263
-0.0506603
-0.0610348
-0.0694585
-0.0729912
-0.0690008
-0.0556057
-0.0333623
-0.00977216
0.00419342
-0.020881
-0.0212586
-0.0203713
-0.0193847
-0.018954
-0.0192794
-0.0205383
-0.0230108
-0.0270874
-0.0331577
-0.0414393
-0.0514968
-0.0619517
-0.0704146
-0.0739968
-0.069854
-0.0556218
-0.0304579
-0.00020867
0.0240609
-0.0260499
-0.0255994
-0.023164
-0.0209546
-0.0196793
-0.0193879
-0.0201799
-0.022301
-0.0261151
-0.0319694
-0.0399644
-0.0495921
-0.0594204
-0.0670069
-0.0693444
-0.0631878
-0.0457694
-0.01558
0.0234462
0.0634859
-0.0349344
-0.0314442
-0.025974
-0.0220473
-0.0197354
-0.0187361
-0.0190142
-0.0207607
-0.0242833
-0.0298445
-0.0374266
-0.0463906
-0.0551907
-0.0611697
-0.0609201
-0.0502972
-0.025549
0.0159675
0.0718238
0.142549
-0.0533806
-0.0394307
-0.0283793
-0.021857
-0.0183494
-0.0167539
-0.0167417
-0.0183659
-0.0218152
-0.0272239
-0.0344429
-0.0426812
-0.0502652
-0.0542535
-0.0505916
-0.0337768
0.00225159
0.0640753
0.154081
0.27545
-0.118074
-0.0436459
-0.0188004
-0.0129183
-0.0107481
-0.0099472
-0.0107127
-0.0131276
-0.0172204
-0.0229997
-0.0302377
-0.0380437
-0.0446837
-0.0471023
-0.0412411
-0.0204035
0.0248238
0.10914
0.244659
0.438974
)
;

boundaryField
{
    movingWall
    {
        type            zeroGradient;
    }
    fixedWalls
    {
        type            zeroGradient;
    }
    frontAndBack
    {
        type            empty;
    }
}


// ************************************************************************* //
