/*--------------------------------*- C++ -*----------------------------------*\
| =========                 |                                                 |
| \\      /  F ield         | OpenFOAM: The Open Source CFD Toolbox           |
|  \\    /   O peration     | Version:  5.0                                   |
|   \\  /    A nd           | Web:      www.OpenFOAM.org                      |
|    \\/     M anipulation  |                                                 |
\*---------------------------------------------------------------------------*/
FoamFile
{
    version     2.0;
    format      ascii;
    class       surfaceScalarField;
    location    "0.4";
    object      phi;
}
// * * * * * * * * * * * * * * * * * * * * * * * * * * * * * * * * * * * * * //

dimensions      [0 3 -1 0 0 0 0];

internalField   nonuniform List<scalar> 
760
(
-5.75338e-09
5.75463e-09
-5.12063e-08
4.54527e-08
-1.26202e-07
7.49958e-08
-2.15952e-07
8.97493e-08
-3.10848e-07
9.48962e-08
-4.04955e-07
9.41071e-08
-4.93807e-07
8.88515e-08
-5.72745e-07
7.89384e-08
-6.35959e-07
6.32139e-08
-6.76329e-07
4.03703e-08
-6.86175e-07
9.8452e-09
-6.58699e-07
-2.74749e-08
-5.90769e-07
-6.79307e-08
-4.85489e-07
-1.0528e-07
-3.54318e-07
-1.31171e-07
-2.16857e-07
-1.37461e-07
-9.72425e-08
-1.19614e-07
-1.73302e-08
-7.99123e-08
1.18285e-08
-2.91588e-08
1.18284e-08
-4.8479e-08
5.42334e-08
-1.77865e-07
1.74839e-07
-3.60817e-07
2.57948e-07
-5.72909e-07
3.01841e-07
-7.95435e-07
3.17423e-07
-1.01449e-06
3.13166e-07
-1.21847e-06
2.92823e-07
-1.39564e-06
2.56112e-07
-1.53281e-06
2.00385e-07
-1.61525e-06
1.2281e-07
-1.62831e-06
2.29103e-08
-1.56019e-06
-9.55999e-08
-1.40656e-06
-2.21556e-07
-1.17535e-06
-3.36493e-07
-8.8995e-07
-4.16571e-07
-5.8873e-07
-4.3868e-07
-3.18284e-07
-3.9006e-07
-1.206e-07
-2.77597e-07
-1.82641e-08
-1.31495e-07
-6.43564e-09
-8.80348e-08
1.42268e-07
-2.88286e-07
3.7509e-07
-5.56454e-07
5.26115e-07
-8.6006e-07
6.05447e-07
-1.17508e-06
6.32442e-07
-1.48312e-06
6.21212e-07
-1.76835e-06
5.78046e-07
-2.01477e-06
5.02533e-07
-2.20474e-06
3.90357e-07
-2.31894e-06
2.37012e-07
-2.33815e-06
4.21222e-08
-2.2466e-06
-1.87153e-07
-2.03756e-06
-4.30591e-07
-1.71966e-06
-6.54403e-07
-1.32213e-06
-8.14096e-07
-8.95732e-07
-8.65079e-07
-5.04809e-07
-7.80982e-07
-2.09375e-07
-5.73031e-07
-4.30321e-08
-2.97838e-07
-4.94676e-08
-1.1808e-07
2.60347e-07
-3.76055e-07
6.33064e-07
-7.13189e-07
8.63249e-07
-1.08936e-06
9.81614e-07
-1.47688e-06
1.01996e-06
-1.85526e-06
9.99599e-07
-2.20698e-06
9.29763e-07
-2.51419e-06
8.0974e-07
-2.75678e-06
6.32952e-07
-2.91195e-06
3.9218e-07
-2.95554e-06
8.57138e-08
-2.86529e-06
-2.77403e-07
-2.62708e-06
-6.68802e-07
-2.24398e-06
-1.0375e-06
-1.74573e-06
-1.31234e-06
-1.19418e-06
-1.41663e-06
-6.76331e-07
-1.29883e-06
-2.79469e-07
-9.69893e-07
-5.57792e-08
-5.21528e-07
-1.05247e-07
-1.40836e-07
4.01183e-07
-4.45077e-07
9.37305e-07
-8.38589e-07
1.25676e-06
-1.27481e-06
1.41784e-06
-1.72382e-06
1.46897e-06
-2.16495e-06
1.44072e-06
-2.58118e-06
1.34599e-06
-2.955e-06
1.18356e-06
-3.26552e-06
9.43479e-07
-3.48694e-06
6.13601e-07
-3.58862e-06
1.87395e-07
-3.53754e-06
-3.28492e-07
-3.30423e-06
-9.02112e-07
-2.8766e-06
-1.46513e-06
-2.27655e-06
-1.91239e-06
-1.57512e-06
-2.11807e-06
-8.91144e-07
-1.9828e-06
-3.58165e-07
-1.50287e-06
-6.35607e-08
-8.16133e-07
-1.68808e-07
-1.58393e-07
5.59576e-07
-4.99931e-07
1.27884e-06
-9.40339e-07
1.69717e-06
-1.42833e-06
1.90583e-06
-1.93329e-06
1.97393e-06
-2.43626e-06
1.94369e-06
-2.92307e-06
1.8328e-06
-3.37899e-06
1.63948e-06
-3.78446e-06
1.34896e-06
-4.1116e-06
9.40741e-07
-4.32167e-06
3.97463e-07
-4.36641e-06
-2.8375e-07
-4.18975e-06
-1.07878e-06
-3.75092e-06
-1.90396e-06
-3.0496e-06
-2.61371e-06
-2.15821e-06
-3.00945e-06
-1.23534e-06
-2.90567e-06
-4.89353e-07
-2.24886e-06
-7.78365e-08
-1.22765e-06
-2.46644e-07
-1.72093e-07
7.31669e-07
-5.43968e-07
1.65072e-06
-1.02387e-06
2.17707e-06
-1.55747e-06
2.43943e-06
-2.11508e-06
2.53153e-06
-2.68151e-06
2.51013e-06
-3.24805e-06
2.39934e-06
-3.80582e-06
2.19725e-06
-4.33969e-06
1.88283e-06
-4.82183e-06
1.42288e-06
-5.20438e-06
7.80019e-07
-5.42109e-06
-6.70437e-08
-5.37553e-06
-1.12433e-06
-4.9833e-06
-2.29619e-06
-4.20059e-06
-3.39642e-06
-3.08236e-06
-4.12769e-06
-1.82309e-06
-4.16494e-06
-7.36831e-07
-3.33512e-06
-1.15095e-07
-1.84939e-06
-3.61739e-07
-1.82634e-07
9.14303e-07
-5.78997e-07
2.04708e-06
-1.09169e-06
2.68977e-06
-1.66459e-06
3.01233e-06
-2.27036e-06
3.1373e-06
-2.89964e-06
3.13941e-06
-3.55196e-06
3.05167e-06
-4.22784e-06
2.87313e-06
-4.92046e-06
2.57545e-06
-5.60543e-06
2.10785e-06
-6.22892e-06
1.4035e-06
-6.69375e-06
3.97791e-07
-6.87279e-06
-9.45296e-07
-6.61377e-06
-2.55521e-06
-5.80953e-06
-4.20067e-06
-4.46625e-06
-5.47096e-06
-2.78348e-06
-5.84771e-06
-1.1896e-06
-4.929e-06
-2.00955e-07
-2.83803e-06
-5.62694e-07
-1.90334e-07
1.10464e-06
-6.05726e-07
2.46247e-06
-1.14388e-06
3.22792e-06
-1.74733e-06
3.61578e-06
-2.392e-06
3.78198e-06
-3.07585e-06
3.82325e-06
-3.80885e-06
3.78467e-06
-4.60382e-06
3.6681e-06
-5.46565e-06
3.43727e-06
-6.37682e-06
3.01902e-06
-7.27922e-06
2.3059e-06
-8.05552e-06
1.17409e-06
-8.53645e-06
-4.6436e-07
-8.51241e-06
-2.57926e-06
-7.80097e-06
-4.91211e-06
-6.32202e-06
-6.94991e-06
-4.21203e-06
-7.9577e-06
-1.95841e-06
-7.18263e-06
-3.78448e-07
-4.41798e-06
-9.41142e-07
-1.95684e-07
1.30032e-06
-6.25e-07
2.89179e-06
-1.17989e-06
3.7828e-06
-1.80084e-06
4.23674e-06
-2.46696e-06
4.4481e-06
-3.18373e-06
4.54002e-06
-3.97202e-06
4.57296e-06
-4.85752e-06
4.5536e-06
-5.85781e-06
4.43757e-06
-6.96421e-06
4.12542e-06
-8.11937e-06
3.46106e-06
-9.19819e-06
2.25291e-06
-1.00039e-05
3.41397e-07
-1.03002e-05
-2.28304e-06
-9.84151e-06
-5.37076e-06
-8.43744e-06
-8.35399e-06
-6.06988e-06
-1.03253e-05
-3.1395e-06
-1.0113e-05
-7.20515e-07
-6.83697e-06
-1.66166e-06
-2.00236e-07
1.50056e-06
-6.39839e-07
3.33139e-06
-1.20157e-06
4.34453e-06
-1.82175e-06
4.85691e-06
-2.4813e-06
5.10765e-06
-3.19167e-06
5.25039e-06
-3.98208e-06
5.36337e-06
-4.88788e-06
5.4594e-06
-5.93644e-06
5.48613e-06
-7.12794e-06
5.31691e-06
-8.41333e-06
4.74645e-06
-9.67893e-06
3.51851e-06
-1.07436e-05
1.40608e-06
-1.13779e-05
-1.64874e-06
-1.13298e-05
-5.41885e-06
-1.03036e-05
-9.38019e-06
-8.05819e-06
-1.25707e-05
-4.7089e-06
-1.34623e-05
-1.32386e-06
-1.0222e-05
-2.98551e-06
-2.07918e-07
1.70847e-06
-6.58331e-07
3.7818e-06
-1.21737e-06
4.90357e-06
-1.81373e-06
5.45327e-06
-2.42819e-06
5.72211e-06
-3.07495e-06
5.89714e-06
-3.78625e-06
6.07467e-06
-4.60032e-06
6.27347e-06
-5.54846e-06
6.43427e-06
-6.6392e-06
6.40765e-06
-7.84231e-06
5.94956e-06
-9.08144e-06
4.75764e-06
-1.02406e-05
2.56527e-06
-1.11336e-05
-7.55778e-07
-1.1578e-05
-4.97445e-06
-1.12136e-05
-9.7446e-06
-9.58565e-06
-1.41986e-05
-6.37776e-06
-1.66702e-05
-2.23125e-06
-1.43685e-05
-5.21677e-06
-2.27052e-07
1.93553e-06
-6.97454e-07
4.25221e-06
-1.24721e-06
5.45333e-06
-1.79391e-06
5.99997e-06
-2.31746e-06
6.24567e-06
-2.83189e-06
6.41157e-06
-3.36651e-06
6.6093e-06
-3.95498e-06
6.86194e-06
-4.62692e-06
7.10621e-06
-5.40017e-06
7.1809e-06
-6.27537e-06
6.82476e-06
-7.23622e-06
5.71849e-06
-8.25487e-06
3.58392e-06
-9.26924e-06
2.58602e-07
-1.01454e-05
-4.09829e-06
-1.0572e-05
-9.31801e-06
-9.96539e-06
-1.48052e-05
-7.5761e-06
-1.90595e-05
-3.29306e-06
-1.86516e-05
-8.50983e-06
-2.73719e-07
2.20925e-06
-7.88157e-07
4.76664e-06
-1.32724e-06
5.99241e-06
-1.79746e-06
6.47019e-06
-2.18227e-06
6.63047e-06
-2.49612e-06
6.72542e-06
-2.7624e-06
6.87558e-06
-3.00631e-06
7.10586e-06
-3.25414e-06
7.35404e-06
-3.53585e-06
7.4626e-06
-3.89054e-06
7.17946e-06
-4.37113e-06
6.19908e-06
-5.04064e-06
4.25343e-06
-5.9767e-06
1.19466e-06
-7.10654e-06
-2.96844e-06
-8.23378e-06
-8.19078e-06
-8.78142e-06
-1.42576e-05
-7.72187e-06
-2.0119e-05
-4.14068e-06
-2.22328e-05
-1.26505e-05
-3.78144e-07
2.58739e-06
-9.82604e-07
5.3711e-06
-1.51271e-06
6.52252e-06
-1.87599e-06
6.83347e-06
-2.07464e-06
6.82912e-06
-2.13025e-06
6.78103e-06
-2.06241e-06
6.80773e-06
-1.88932e-06
6.93277e-06
-1.63633e-06
7.10105e-06
-1.34777e-06
7.17404e-06
-1.10234e-06
6.93403e-06
-1.01644e-06
6.11318e-06
-1.22978e-06
4.46677e-06
-1.87988e-06
1.84477e-06
-3.02766e-06
-1.82066e-06
-4.58355e-06
-6.63489e-06
-6.11791e-06
-1.27232e-05
-6.56997e-06
-1.9667e-05
-4.41086e-06
-2.43919e-05
-1.70614e-05
-5.98747e-07
3.18614e-06
-1.36548e-06
6.13783e-06
-1.874e-06
7.03104e-06
-2.07886e-06
7.03834e-06
-2.03274e-06
6.783e-06
-1.77729e-06
6.52559e-06
-1.33501e-06
6.36545e-06
-7.22059e-07
6.31982e-06
3.51784e-08
6.34381e-06
8.77564e-07
6.33166e-06
1.70314e-06
6.10845e-06
2.35611e-06
5.4602e-06
2.64386e-06
4.17902e-06
2.38045e-06
2.10817e-06
1.43139e-06
-8.71592e-07
-2.04497e-07
-4.99901e-06
-2.35003e-06
-1.05777e-05
-4.19748e-06
-1.78195e-05
-3.8423e-06
-2.4747e-05
-2.09037e-05
-1.05885e-06
4.24499e-06
-2.0636e-06
7.14258e-06
-2.45123e-06
7.41868e-06
-2.35463e-06
6.94173e-06
-1.93082e-06
6.35919e-06
-1.26177e-06
5.85653e-06
-3.8313e-07
5.48681e-06
6.84775e-07
5.25192e-06
1.91274e-06
5.11585e-06
3.24609e-06
4.99831e-06
4.57698e-06
4.77756e-06
5.74138e-06
4.2958e-06
6.5315e-06
3.3889e-06
6.73848e-06
1.9012e-06
6.16744e-06
-3.00553e-07
4.71344e-06
-3.54501e-06
2.31532e-06
-8.17958e-06
-6.05888e-07
-1.48983e-05
-2.3104e-06
-2.30425e-05
-2.32141e-05
-2.04802e-06
6.293e-06
-3.11047e-06
8.20503e-06
-2.86083e-06
7.16904e-06
-1.95768e-06
6.03858e-06
-7.5986e-07
5.16137e-06
6.01151e-07
4.49552e-06
2.08493e-06
4.00302e-06
3.67778e-06
3.65907e-06
5.36648e-06
3.42715e-06
7.11561e-06
3.24918e-06
8.84609e-06
3.04708e-06
1.0423e-05
2.71888e-06
1.16557e-05
2.15625e-06
1.23207e-05
1.23611e-06
1.21626e-05
-1.42392e-07
1.0959e-05
-2.34144e-06
8.42075e-06
-5.6413e-06
4.52211e-06
-1.09997e-05
8.23027e-07
-1.93435e-05
-2.2391e-05
-3.67483e-06
9.96784e-06
-2.32806e-06
6.85826e-06
4.98948e-07
4.34202e-06
3.21219e-06
3.32534e-06
5.69113e-06
2.68242e-06
7.9937e-06
2.19296e-06
1.01604e-05
1.83635e-06
1.22284e-05
1.59108e-06
1.42308e-05
1.42468e-06
1.61796e-05
1.30037e-06
1.80464e-05
1.18035e-06
1.97478e-05
1.01749e-06
2.11373e-05
7.66747e-07
2.19849e-05
3.8843e-07
2.20206e-05
-1.78087e-07
2.08591e-05
-1.17994e-06
1.79966e-05
-2.77877e-06
1.28142e-05
-5.81724e-06
5.43362e-06
-1.19629e-05
-1.69574e-05
9.96784e-06
1.68261e-05
2.11681e-05
2.44935e-05
2.71759e-05
2.93688e-05
3.12052e-05
3.27963e-05
3.4221e-05
3.55213e-05
3.67017e-05
3.77192e-05
3.84859e-05
3.88743e-05
3.86963e-05
3.75163e-05
3.47375e-05
2.89203e-05
1.69574e-05
)
;

boundaryField
{
    movingWall
    {
        type            calculated;
        value           uniform 0;
    }
    fixedWalls
    {
        type            calculated;
        value           uniform 0;
    }
    frontAndBack
    {
        type            empty;
        value           nonuniform 0();
    }
}


// ************************************************************************* //
