/*--------------------------------*- C++ -*----------------------------------*\
| =========                 |                                                 |
| \\      /  F ield         | OpenFOAM: The Open Source CFD Toolbox           |
|  \\    /   O peration     | Version:  5.0                                   |
|   \\  /    A nd           | Web:      www.OpenFOAM.org                      |
|    \\/     M anipulation  |                                                 |
\*---------------------------------------------------------------------------*/
FoamFile
{
    version     2.0;
    format      ascii;
    class       volVectorField;
    location    "0.4";
    object      U;
}
// * * * * * * * * * * * * * * * * * * * * * * * * * * * * * * * * * * * * * //

dimensions      [0 1 -1 0 0 0 0];

internalField   nonuniform List<vector> 
400
(
(4.95066e-05 -5.64542e-05 0)
(-0.000400337 0.000254588 0)
(-0.0016838 0.000497582 0)
(-0.00338218 0.000614575 0)
(-0.00526027 0.000655149 0)
(-0.0071737 0.000655033 0)
(-0.00902412 0.00062785 0)
(-0.0107244 0.000571429 0)
(-0.0121718 0.000474483 0)
(-0.0132357 0.000323544 0)
(-0.0137638 0.000110287 0)
(-0.0136038 -0.000160931 0)
(-0.0126475 -0.000464969 0)
(-0.0108866 -0.000751441 0)
(-0.00846441 -0.000951481 0)
(-0.00569822 -0.000996309 0)
(-0.00304099 -0.000846175 0)
(-0.000969162 -0.000517717 0)
(0.000153214 -0.000101254 0)
(0.000221113 0.000196265 0)
(-0.000289139 0.000407666 0)
(-0.00192446 0.00183067 0)
(-0.00517692 0.00285815 0)
(-0.00924888 0.00339404 0)
(-0.0136729 0.00358775 0)
(-0.0181483 0.00355601 0)
(-0.0224334 0.00334857 0)
(-0.0263021 0.00296032 0)
(-0.0295085 0.00235396 0)
(-0.0317696 0.00148786 0)
(-0.0327815 0.000346831 0)
(-0.0322638 -0.00102607 0)
(-0.0300363 -0.00250196 0)
(-0.0261191 -0.00385542 0)
(-0.0208198 -0.0047931 0)
(-0.0147697 -0.0050314 0)
(-0.00885407 -0.00441482 0)
(-0.00400466 -0.00302764 0)
(-0.000933757 -0.00124712 0)
(4.45474e-05 0.000190505 0)
(-0.000612624 0.00182931 0)
(-0.00330002 0.00520117 0)
(-0.0081664 0.0074662 0)
(-0.0140557 0.0086695 0)
(-0.0203479 0.00909367 0)
(-0.0266607 0.00895645 0)
(-0.0326701 0.00835573 0)
(-0.0380662 0.00728502 0)
(-0.0425162 0.00567678 0)
(-0.0456461 0.0034601 0)
(-0.0470578 0.00062549 0)
(-0.0463821 -0.00270855 0)
(-0.0433692 -0.00624026 0)
(-0.0380144 -0.00946205 0)
(-0.0306828 -0.0117189 0)
(-0.0221861 -0.0123735 0)
(-0.0137217 -0.0110699 0)
(-0.00660176 -0.00799526 0)
(-0.00187454 -0.00398146 0)
(-0.000106922 -0.000460437 0)
(-0.000849073 0.00392552 0)
(-0.00437452 0.00985718 0)
(-0.0105612 0.0136145 0)
(-0.017906 0.015574 0)
(-0.0256654 0.0162262 0)
(-0.033417 0.0159161 0)
(-0.0408048 0.014796 0)
(-0.0474852 0.012856 0)
(-0.0530841 0.00999152 0)
(-0.0571695 0.0060926 0)
(-0.0592604 0.00114509 0)
(-0.0588721 -0.00466398 0)
(-0.0556096 -0.0108518 0)
(-0.0493243 -0.0165776 0)
(-0.0403109 -0.0207179 0)
(-0.0294803 -0.0221229 0)
(-0.018374 -0.0200856 0)
(-0.0088442 -0.01486 0)
(-0.00246648 -0.00787485 0)
(-0.000114954 -0.00146802 0)
(-0.0010201 0.00653609 0)
(-0.0052019 0.0155236 0)
(-0.0124621 0.0209718 0)
(-0.0210028 0.0237463 0)
(-0.029985 0.0246301 0)
(-0.0389787 0.0241312 0)
(-0.0476376 0.0224672 0)
(-0.0556309 0.0196203 0)
(-0.0625842 0.0154323 0)
(-0.0680328 0.00972314 0)
(-0.071406 0.00242723 0)
(-0.0720493 -0.0062562 0)
(-0.0692983 -0.0157122 0)
(-0.0626747 -0.0247458 0)
(-0.0522057 -0.0316335 0)
(-0.0387743 -0.0344468 0)
(-0.0243226 -0.0318106 0)
(-0.0115486 -0.0238897 0)
(-0.00298052 -0.0129131 0)
(-1.45807e-05 -0.0026364 0)
(-0.00114674 0.00954434 0)
(-0.00584638 0.0220132 0)
(-0.0139857 0.0293453 0)
(-0.0235351 0.033017 0)
(-0.033593 0.034185 0)
(-0.0437534 0.0335655 0)
(-0.0537232 0.0314586 0)
(-0.0632334 0.0278353 0)
(-0.0719585 0.022458 0)
(-0.0794361 0.0150209 0)
(-0.085006 0.00531458 0)
(-0.0877877 -0.00657179 0)
(-0.0866889 -0.020012 0)
(-0.0806434 -0.0334944 0)
(-0.0691144 -0.0445483 0)
(-0.0527018 -0.0500566 0)
(-0.033702 -0.0473808 0)
(-0.0160134 -0.03616 0)
(-0.00387754 -0.0196412 0)
(0.000136633 -0.00396066 0)
(-0.0012414 0.0128615 0)
(-0.00635303 0.0291724 0)
(-0.0152185 0.0385764 0)
(-0.0256319 0.0432564 0)
(-0.0366615 0.0448221 0)
(-0.0479598 0.0442496 0)
(-0.0593334 0.0419486 0)
(-0.0706341 0.0378814 0)
(-0.0816508 0.0317009 0)
(-0.0919816 0.022897 0)
(-0.100902 0.0109679 0)
(-0.107263 -0.0043175 0)
(-0.109384 -0.0224868 0)
(-0.10532 -0.0419269 0)
(-0.0935908 -0.0592993 0)
(-0.0740985 -0.0697809 0)
(-0.0491856 -0.0685303 0)
(-0.0240937 -0.0536642 0)
(-0.00585467 -0.0293725 0)
(0.000259115 -0.00570372 0)
(-0.00131012 0.0164187 0)
(-0.00674649 0.0368762 0)
(-0.0162057 0.048529 0)
(-0.0273452 0.0543479 0)
(-0.0392294 0.0564761 0)
(-0.0516022 0.0562114 0)
(-0.0644174 0.0541142 0)
(-0.0777123 0.0501522 0)
(-0.0914696 0.0438431 0)
(-0.105435 0.0343807 0)
(-0.118876 0.0207859 0)
(-0.130302 0.00221322 0)
(-0.137398 -0.0214161 0)
(-0.137167 -0.0486052 0)
(-0.126778 -0.0751657 0)
(-0.104961 -0.0941156 0)
(-0.0734213 -0.0972663 0)
(-0.0382 -0.0793967 0)
(-0.0100101 -0.0445069 0)
(0.000205738 -0.00853508 0)
(-0.00135587 0.0201565 0)
(-0.00703875 0.0450137 0)
(-0.0169612 0.0590674 0)
(-0.0286612 0.0661498 0)
(-0.0412131 0.0690238 0)
(-0.0544738 0.0693843 0)
(-0.0685816 0.0679984 0)
(-0.0838114 0.0648694 0)
(-0.100407 0.0593622 0)
(-0.118334 0.0502741 0)
(-0.136927 0.0359307 0)
(-0.15446 0.0145127 0)
(-0.167945 -0.015095 0)
(-0.173323 -0.0517699 0)
(-0.166435 -0.0906765 0)
(-0.144481 -0.122548 0)
(-0.107522 -0.134966 0)
(-0.0607787 -0.116909 0)
(-0.0181002 -0.0688102 0)
(-0.000366352 -0.0138059 0)
(-0.0013844 0.0240216 0)
(-0.00724741 0.0534786 0)
(-0.0174978 0.0700337 0)
(-0.0295411 0.0784514 0)
(-0.0424532 0.0822116 0)
(-0.0562061 0.0834924 0)
(-0.0711289 0.0833345 0)
(-0.0877448 0.0818161 0)
(-0.106575 0.0781362 0)
(-0.127841 0.0705919 0)
(-0.151017 0.0565876 0)
(-0.174299 0.0330095 0)
(-0.194262 -0.00259129 0)
(-0.206217 -0.0498683 0)
(-0.205177 -0.103625 0)
(-0.186838 -0.152828 0)
(-0.148649 -0.180883 0)
(-0.0926343 -0.168823 0)
(-0.0326707 -0.107405 0)
(-0.00227693 -0.0240629 0)
(-0.00141352 0.0279773 0)
(-0.00742516 0.0621774 0)
(-0.017879 0.0812397 0)
(-0.0299903 0.0909424 0)
(-0.0428046 0.095594 0)
(-0.0563824 0.0979438 0)
(-0.0712034 0.0993675 0)
(-0.0879794 0.100052 0)
(-0.107444 0.0990206 0)
(-0.130036 0.0939972 0)
(-0.155439 0.0813349 0)
(-0.182028 0.0565057 0)
(-0.206522 0.0156542 0)
(-0.224388 -0.0418621 0)
(-0.230809 -0.11103 0)
(-0.22057 -0.180303 0)
(-0.188034 -0.230381 0)
(-0.130097 -0.234039 0)
(-0.056004 -0.165507 0)
(-0.00708232 -0.043634 0)
(-0.00148741 0.0320374 0)
(-0.00770231 0.071067 0)
(-0.0182884 0.0924836 0)
(-0.0301547 0.103207 0)
(-0.0422674 0.108506 0)
(-0.0547311 0.111774 0)
(-0.0680911 0.114755 0)
(-0.0831206 0.117757 0)
(-0.100626 0.119634 0)
(-0.121182 0.117558 0)
(-0.144755 0.10692 0)
(-0.170264 0.0819984 0)
(-0.195311 0.0378282 0)
(-0.216474 -0.0271973 0)
(-0.230309 -0.109284 0)
(-0.231594 -0.197901 0)
(-0.212146 -0.273985 0)
(-0.163336 -0.304641 0)
(-0.0865051 -0.243963 0)
(-0.0165752 -0.0782672 0)
(-0.00170052 0.0363307 0)
(-0.00834751 0.0802259 0)
(-0.0191174 0.103593 0)
(-0.0304285 0.114749 0)
(-0.0411353 0.120092 0)
(-0.0513626 0.123701 0)
(-0.0616328 0.127665 0)
(-0.0726359 0.132401 0)
(-0.0851029 0.136639 0)
(-0.0996713 0.137171 0)
(-0.116683 0.128786 0)
(-0.135924 0.1051 0)
(-0.156527 0.0605879 0)
(-0.177151 -0.0071151 0)
(-0.196304 -0.0961238 0)
(-0.209711 -0.198728 0)
(-0.208309 -0.299785 0)
(-0.17912 -0.365973 0)
(-0.115132 -0.33359 0)
(-0.0306979 -0.133028 0)
(-0.00224155 0.0412198 0)
(-0.00985909 0.0899652 0)
(-0.0210633 0.114484 0)
(-0.031542 0.125041 0)
(-0.0400945 0.129404 0)
(-0.0469366 0.132314 0)
(-0.0525425 0.136124 0)
(-0.0574378 0.141318 0)
(-0.0622047 0.146604 0)
(-0.0675358 0.148696 0)
(-0.0742374 0.142317 0)
(-0.0831212 0.12107 0)
(-0.0950106 0.0794012 0)
(-0.110995 0.0144913 0)
(-0.131616 -0.0733271 0)
(-0.1545 -0.180899 0)
(-0.171522 -0.299883 0)
(-0.167593 -0.40295 0)
(-0.12899 -0.416971 0)
(-0.0448897 -0.209161 0)
(-0.00348295 0.047521 0)
(-0.0131192 0.100972 0)
(-0.0252378 0.125176 0)
(-0.034572 0.133541 0)
(-0.0401553 0.135498 0)
(-0.0425464 0.13633 0)
(-0.0422542 0.138485 0)
(-0.0396647 0.142466 0)
(-0.0352405 0.147077 0)
(-0.0297625 0.149302 0)
(-0.0245201 0.144349 0)
(-0.0213161 0.12638 0)
(-0.0224515 0.0901748 0)
(-0.0306718 0.0326854 0)
(-0.048398 -0.0469375 0)
(-0.075684 -0.149875 0)
(-0.106767 -0.275638 0)
(-0.127393 -0.408374 0)
(-0.120633 -0.477957 0)
(-0.0512515 -0.300776 0)
(-0.00618075 0.0569615 0)
(-0.0196882 0.114443 0)
(-0.0332684 0.135663 0)
(-0.0407261 0.139554 0)
(-0.0421435 0.137427 0)
(-0.0389169 0.134734 0)
(-0.0317688 0.133742 0)
(-0.0210553 0.134894 0)
(-0.00720244 0.137198 0)
(0.00893212 0.138193 0)
(0.0257128 0.133927 0)
(0.0406143 0.119525 0)
(0.0503644 0.0903714 0)
(0.0513119 0.0432424 0)
(0.0398377 -0.0239487 0)
(0.014221 -0.114985 0)
(-0.0234506 -0.235707 0)
(-0.0630368 -0.384423 0)
(-0.0908856 -0.507491 0)
(-0.0445532 -0.393933 0)
(-0.0119593 0.0731451 0)
(-0.0323858 0.132063 0)
(-0.0470724 0.145519 0)
(-0.0499365 0.141876 0)
(-0.0442017 0.133894 0)
(-0.0329012 0.126447 0)
(-0.0172095 0.121232 0)
(0.00239992 0.118502 0)
(0.025502 0.117474 0)
(0.0512502 0.116311 0)
(0.0779877 0.112067 0)
(0.103093 0.10102 0)
(0.12297 0.0793816 0)
(0.133711 0.043863 0)
(0.130719 -0.00853739 0)
(0.111647 -0.0829111 0)
(0.074556 -0.188178 0)
(0.0233639 -0.335529 0)
(-0.0408405 -0.498394 0)
(-0.0220357 -0.46582 0)
(-0.0244697 0.103289 0)
(-0.0556783 0.154571 0)
(-0.0638573 0.150511 0)
(-0.050511 0.134485 0)
(-0.0282906 0.119211 0)
(-0.00218293 0.10686 0)
(0.0265009 0.0977042 0)
(0.0573705 0.0914859 0)
(0.0901969 0.0874597 0)
(0.12454 0.0842783 0)
(0.159252 0.0799964 0)
(0.192366 0.0720693 0)
(0.220557 0.0577842 0)
(0.240417 0.0342666 0)
(0.2459 -0.00164884 0)
(0.234684 -0.0550064 0)
(0.199596 -0.134648 0)
(0.141056 -0.260161 0)
(0.0391881 -0.43703 0)
(0.0254154 -0.479673 0)
(-0.0580227 0.182648 0)
(-0.0716375 0.165055 0)
(-0.0191633 0.120746 0)
(0.0372625 0.0967378 0)
(0.0895446 0.080456 0)
(0.137568 0.0679221 0)
(0.18225 0.0585536 0)
(0.224469 0.051944 0)
(0.264927 0.0474131 0)
(0.304174 0.0440351 0)
(0.341917 0.0407327 0)
(0.377471 0.0360849 0)
(0.407945 0.0286049 0)
(0.431274 0.0164949 0)
(0.439557 -0.002072 0)
(0.431797 -0.0303193 0)
(0.392592 -0.0746004 0)
(0.32373 -0.153832 0)
(0.184185 -0.301559 0)
(0.127697 -0.388924 0)
(0.22313 0.131316 0)
(0.267648 0.109042 0)
(0.371395 0.0751755 0)
(0.457203 0.0542073 0)
(0.519608 0.0409168 0)
(0.567661 0.0315523 0)
(0.607191 0.0247645 0)
(0.641062 0.0199122 0)
(0.670833 0.0164914 0)
(0.697779 0.0140192 0)
(0.722035 0.0120587 0)
(0.743935 0.0101237 0)
(0.761041 0.00769461 0)
(0.773315 0.00426111 0)
(0.773316 -0.000877242 0)
(0.762771 -0.00795816 0)
(0.719985 -0.0201617 0)
(0.654845 -0.0401343 0)
(0.492789 -0.0882532 0)
(0.363362 -0.143667 0)
)
;

boundaryField
{
    movingWall
    {
        type            fixedValue;
        value           uniform (1 0 0);
    }
    fixedWalls
    {
        type            noSlip;
    }
    frontAndBack
    {
        type            empty;
    }
}


// ************************************************************************* //
