/*--------------------------------*- C++ -*----------------------------------*\
| =========                 |                                                 |
| \\      /  F ield         | OpenFOAM: The Open Source CFD Toolbox           |
|  \\    /   O peration     | Version:  5.0                                   |
|   \\  /    A nd           | Web:      www.OpenFOAM.org                      |
|    \\/     M anipulation  |                                                 |
\*---------------------------------------------------------------------------*/
FoamFile
{
    version     2.0;
    format      ascii;
    class       volScalarField;
    location    "0.2";
    object      p;
}
// * * * * * * * * * * * * * * * * * * * * * * * * * * * * * * * * * * * * * //

dimensions      [0 2 -2 0 0 0 0];

internalField   nonuniform List<scalar> 
400
(
-1.53698e-08
-0.000134015
-0.000200613
-0.000175695
-4.97898e-05
0.000177157
0.000501708
0.000919499
0.0014243
0.0020058
0.00264743
0.00332469
0.00400432
0.00464498
0.0052002
0.00562422
0.00588189
0.0059627
0.00589133
0.00572024
0.000132486
-5.01745e-06
-4.8771e-05
-5.43272e-06
0.000122048
0.000336666
0.00063905
0.0010275
0.00149748
0.00203991
0.00263944
0.00327317
0.00390987
0.00451084
0.00503307
0.00543522
0.00568774
0.00578389
0.005735
0.0055603
0.000196883
2.46866e-05
-2.33302e-05
2.18337e-05
0.000145208
0.000349635
0.000637662
0.00100976
0.00146362
0.00199232
0.00258239
0.00321226
0.00385105
0.00445923
0.00499137
0.00540266
0.00566044
0.00575568
0.00569031
0.00546664
0.00015567
-5.60162e-05
-0.000118488
-7.9721e-05
3.61712e-05
0.000231391
0.000509895
0.000874437
0.00132552
0.00185909
0.00246412
0.00312043
0.00379653
0.00444942
0.00502691
0.00547481
0.00575122
0.00584157
0.00574362
0.00545624
-1.78646e-05
-0.000263366
-0.000341238
-0.000311364
-0.000204176
-1.7453e-05
0.000254566
0.000617457
0.00107526
0.00162771
0.00226709
0.00297517
0.00371971
0.00445241
0.00511051
0.00562467
0.00593758
0.00602581
0.00588707
0.00552734
-0.000339623
-0.000616207
-0.000709867
-0.000690133
-0.000592477
-0.000414218
-0.000147308
0.00021735
0.000688354
0.00127056
0.00196124
0.00274555
0.00359147
0.00444451
0.00522733
0.00584789
0.00622391
0.00631607
0.00612291
0.00566652
-0.00082082
-0.00112993
-0.00124082
-0.00123287
-0.00114684
-0.000979571
-0.000720344
-0.000355764
0.000128618
0.000744793
0.00149766
0.00237881
0.00335962
0.0043805
0.00534616
0.00613179
0.0066146
0.00672449
0.00645443
0.00585029
-0.00147356
-0.00181976
-0.00195047
-0.00195713
-0.00188732
-0.0017378
-0.00149512
-0.00114092
-0.000653507
-1.12487e-05
0.000802161
0.00178977
0.00293409
0.00417537
0.00540005
0.00643912
0.00710494
0.00726679
0.0068888
0.00604108
-0.00231325
-0.00270338
-0.00285743
-0.00288277
-0.00283661
-0.00271683
-0.00250764
-0.00218563
-0.00172095
-0.0010801
-0.000230821
0.000849793
0.00216636
0.00367448
0.00525068
0.00667471
0.00765977
0.00795799
0.00744276
0.00617928
-0.0033596
-0.00380237
-0.00398313
-0.00403129
-0.00401827
-0.00394521
-0.00379534
-0.00354125
-0.00314558
-0.00256252
-0.00173943
-0.000623444
0.000818598
0.00260103
0.00461479
0.00660503
0.00815102
0.00878681
0.00814936
0.00618441
-0.00463826
-0.00514388
-0.00535222
-0.00542436
-0.00545325
-0.00544677
-0.00538976
-0.00525374
-0.00499724
-0.00456538
-0.00388806
-0.00288283
-0.00147161
0.000483207
0.00293113
0.00567841
0.00818767
0.00961803
0.00904447
0.00600139
-0.00618467
-0.00676401
-0.00699335
-0.00708161
-0.00715492
-0.00723261
-0.00730482
-0.00734717
-0.00732167
-0.00717498
-0.00683315
-0.00619017
-0.00508836
-0.00338882
-0.00080896
0.00271829
0.00674043
0.00989951
0.0100576
0.00578759
-0.00805306
-0.00871459
-0.00894084
-0.00901756
-0.00912213
-0.00929027
-0.00952073
-0.00979983
-0.0101051
-0.010405
-0.010653
-0.0107731
-0.0106182
-0.00989063
-0.00801058
-0.00421057
0.00174093
0.00814167
0.0107565
0.00634528
-0.0103365
-0.0110764
-0.0112372
-0.0112366
-0.0113301
-0.0115707
-0.0119648
-0.0125143
-0.013225
-0.0141122
-0.0152013
-0.0165168
-0.0180167
-0.0193661
-0.0195404
-0.0167968
-0.00924947
0.00194686
0.010207
0.009282
-0.0132105
-0.0139835
-0.0139338
-0.0137227
-0.0137174
-0.0139736
-0.0144939
-0.0152928
-0.0164108
-0.0179288
-0.0199816
-0.0227568
-0.026409
-0.0306878
-0.0341626
-0.0340206
-0.0261162
-0.0096725
0.00777621
0.0158371
-0.0170371
-0.0176678
-0.017077
-0.0164117
-0.0161601
-0.0163272
-0.0168813
-0.0178349
-0.019256
-0.0212896
-0.0241829
-0.0282849
-0.0339257
-0.0410025
-0.0479394
-0.0505645
-0.0432459
-0.0223394
0.00588428
0.0275926
-0.022656
-0.0225175
-0.0206335
-0.0191169
-0.0184171
-0.018352
-0.0188063
-0.0197685
-0.0213158
-0.0236318
-0.0270317
-0.0319359
-0.0386789
-0.0472048
-0.0553514
-0.0588233
-0.0507532
-0.0249482
0.0143095
0.0551674
-0.0322277
-0.0290495
-0.0243672
-0.0214755
-0.0200764
-0.0196127
-0.0198374
-0.0206906
-0.0222356
-0.0246542
-0.028256
-0.0334049
-0.0402874
-0.0483008
-0.0550186
-0.0550441
-0.0407065
-0.00491152
0.0509643
0.12492
-0.0511092
-0.0373775
-0.0272899
-0.0220497
-0.0196475
-0.0187519
-0.0188337
-0.0197177
-0.0213956
-0.0239941
-0.0277523
-0.0328548
-0.0391586
-0.0454008
-0.0484194
-0.0414728
-0.0155596
0.0400486
0.129531
0.254647
-0.115468
-0.0413805
-0.0175518
-0.0130409
-0.012075
-0.0120403
-0.0129578
-0.0147263
-0.0172303
-0.0205236
-0.0247864
-0.0300189
-0.0357718
-0.0402445
-0.0399453
-0.0276747
0.00868688
0.087506
0.222545
0.419713
)
;

boundaryField
{
    movingWall
    {
        type            zeroGradient;
    }
    fixedWalls
    {
        type            zeroGradient;
    }
    frontAndBack
    {
        type            empty;
    }
}


// ************************************************************************* //
