/*--------------------------------*- C++ -*----------------------------------*\
| =========                 |                                                 |
| \\      /  F ield         | OpenFOAM: The Open Source CFD Toolbox           |
|  \\    /   O peration     | Version:  5.0                                   |
|   \\  /    A nd           | Web:      www.OpenFOAM.org                      |
|    \\/     M anipulation  |                                                 |
\*---------------------------------------------------------------------------*/
FoamFile
{
    version     2.0;
    format      ascii;
    class       surfaceScalarField;
    location    "0.2";
    object      phi;
}
// * * * * * * * * * * * * * * * * * * * * * * * * * * * * * * * * * * * * * //

dimensions      [0 3 -1 0 0 0 0];

internalField   nonuniform List<scalar> 
760
(
-5.99755e-09
5.99862e-09
-4.57318e-08
3.97341e-08
-1.08146e-07
6.24141e-08
-1.79345e-07
7.11986e-08
-2.5096e-07
7.1614e-08
-3.18478e-07
6.75185e-08
-3.7914e-07
6.06622e-08
-4.30647e-07
5.15068e-08
-4.70571e-07
3.99243e-08
-4.9622e-07
2.56495e-08
-5.04765e-07
8.54516e-09
-4.93546e-07
-1.12185e-08
-4.60602e-07
-3.29438e-08
-4.05401e-07
-5.52015e-08
-3.29817e-07
-7.55841e-08
-2.39312e-07
-9.05055e-08
-1.44118e-07
-9.51933e-08
-6.00858e-08
-8.40324e-08
-7.72814e-09
-5.23575e-08
-7.72817e-09
-4.12934e-08
4.72918e-08
-1.4782e-07
1.4626e-07
-2.93028e-07
2.07622e-07
-4.5402e-07
2.3219e-07
-6.14837e-07
2.3243e-07
-7.65375e-07
2.18056e-07
-8.98822e-07
1.9411e-07
-1.00966e-06
1.62347e-07
-1.09263e-06
1.22893e-07
-1.14241e-06
7.54296e-08
-1.15383e-06
1.99652e-08
-1.12237e-06
-4.2674e-08
-1.04516e-06
-1.10158e-07
-9.22276e-07
-1.78085e-07
-7.58502e-07
-2.39358e-07
-5.65295e-07
-2.83713e-07
-3.6251e-07
-2.97978e-07
-1.78694e-07
-2.67849e-07
-4.76662e-08
-1.83385e-07
-5.53946e-08
-6.9495e-08
1.16786e-07
-2.25159e-07
3.01924e-07
-4.2743e-07
4.09892e-07
-6.47094e-07
4.51854e-07
-8.64345e-07
4.49681e-07
-1.06637e-06
4.20078e-07
-1.24428e-06
3.72027e-07
-1.39089e-06
3.08956e-07
-1.49946e-06
2.31459e-07
-1.56332e-06
1.39293e-07
-1.57606e-06
3.27073e-08
-1.53208e-06
-8.66527e-08
-1.4278e-06
-2.14442e-07
-1.26329e-06
-3.42597e-07
-1.04456e-06
-4.58085e-07
-7.86142e-07
-5.4213e-07
-5.13244e-07
-5.70876e-07
-2.62046e-07
-5.19047e-07
-7.61848e-08
-3.69247e-07
-1.3158e-07
-8.73306e-08
2.04117e-07
-2.77669e-07
4.92261e-07
-5.20329e-07
6.52553e-07
-7.80648e-07
7.12173e-07
-1.03636e-06
7.05392e-07
-1.27345e-06
6.57165e-07
-1.48227e-06
5.80851e-07
-1.65496e-06
4.81641e-07
-1.78402e-06
3.60525e-07
-1.86187e-06
2.17144e-07
-1.88088e-06
5.17117e-08
-1.83389e-06
-1.33642e-07
-1.71561e-06
-3.32719e-07
-1.52467e-06
-5.33542e-07
-1.26663e-06
-7.16124e-07
-9.57667e-07
-8.5109e-07
-6.27749e-07
-9.00794e-07
-3.21325e-07
-8.25471e-07
-9.32153e-08
-5.97356e-07
-2.24795e-07
-9.95076e-08
3.03624e-07
-3.15985e-07
7.08739e-07
-5.90078e-07
9.26646e-07
-8.82406e-07
1.0045e-06
-1.16885e-06
9.91838e-07
-1.43491e-06
9.23223e-07
-1.67088e-06
8.16823e-07
-1.86879e-06
6.79552e-07
-2.02076e-06
5.12493e-07
-2.11827e-06
3.14652e-07
-2.15204e-06
8.54853e-08
-2.11244e-06
-1.73243e-07
-1.99087e-06
-4.54287e-07
-1.78251e-06
-7.419e-07
-1.49055e-06
-1.00809e-06
-1.13176e-06
-1.20988e-06
-7.41807e-07
-1.29075e-06
-3.76736e-07
-1.19054e-06
-1.06609e-07
-8.67483e-07
-3.31404e-07
-1.09951e-07
4.13575e-07
-3.49809e-07
9.48597e-07
-6.52723e-07
1.22956e-06
-9.75021e-07
1.3268e-06
-1.29107e-06
1.30788e-06
-1.58629e-06
1.21845e-06
-1.85143e-06
1.08196e-06
-2.07883e-06
9.06957e-07
-2.26052e-06
6.94175e-07
-2.38704e-06
4.41175e-07
-2.44702e-06
1.45472e-07
-2.42725e-06
-1.93022e-07
-2.31381e-06
-5.67723e-07
-2.09569e-06
-9.60018e-07
-1.77065e-06
-1.33313e-06
-1.35404e-06
-1.62648e-06
-8.88192e-07
-1.7566e-06
-4.46307e-07
-1.63243e-06
-1.2203e-07
-1.19176e-06
-4.53434e-07
-1.21072e-07
5.34647e-07
-3.85576e-07
1.2131e-06
-7.18901e-07
1.56289e-06
-1.07305e-06
1.68095e-06
-1.42108e-06
1.65592e-06
-1.74879e-06
1.54616e-06
-2.04785e-06
1.38102e-06
-2.31156e-06
1.17066e-06
-2.53231e-06
9.14931e-07
-2.7001e-06
6.08958e-07
-2.80131e-06
2.46681e-07
-2.81824e-06
-1.76084e-07
-2.7294e-06
-6.56568e-07
-2.51368e-06
-1.17573e-06
-2.15818e-06
-1.68863e-06
-1.67191e-06
-2.11275e-06
-1.10292e-06
-2.32559e-06
-5.49256e-07
-2.18609e-06
-1.44113e-07
-1.5969e-06
-5.97547e-07
-1.34232e-07
6.68879e-07
-4.2706e-07
1.50593e-06
-7.94711e-07
1.93054e-06
-1.18441e-06
2.07065e-06
-1.56807e-06
2.03958e-06
-1.93241e-06
1.9105e-06
-2.27082e-06
1.71943e-06
-2.57839e-06
1.47823e-06
-2.84894e-06
1.18549e-06
-3.07286e-06
8.32878e-07
-3.23498e-06
4.08794e-07
-3.31323e-06
-9.78249e-08
-3.27591e-06
-6.93889e-07
-3.08697e-06
-1.36468e-06
-2.71408e-06
-2.06152e-06
-2.14915e-06
-2.67769e-06
-1.43934e-06
-3.03539e-06
-7.15783e-07
-2.90965e-06
-1.79987e-07
-2.1327e-06
-7.77534e-07
-1.5032e-07
8.19199e-07
-4.76652e-07
1.83226e-06
-8.83668e-07
2.33755e-06
-1.31298e-06
2.49996e-06
-1.73562e-06
2.46222e-06
-2.13994e-06
2.31482e-06
-2.52208e-06
2.10157e-06
-2.88028e-06
1.83642e-06
-3.21146e-06
1.51668e-06
-3.50846e-06
1.12987e-06
-3.75638e-06
6.56716e-07
-3.93105e-06
7.68455e-08
-3.98853e-06
-6.36413e-07
-3.87274e-06
-1.48046e-06
-3.51862e-06
-2.41565e-06
-2.88066e-06
-3.31564e-06
-1.98622e-06
-3.92984e-06
-1.00249e-06
-3.89338e-06
-2.45398e-07
-2.88979e-06
-1.02293e-06
-1.7031e-07
9.89509e-07
-5.36655e-07
2.19861e-06
-9.88604e-07
2.7895e-06
-1.46102e-06
2.97237e-06
-1.92439e-06
2.9256e-06
-2.36974e-06
2.76016e-06
-2.79727e-06
2.52909e-06
-3.21006e-06
2.24921e-06
-3.61056e-06
1.91718e-06
-3.99736e-06
1.51667e-06
-4.36073e-06
1.02009e-06
-4.67394e-06
3.90058e-07
-4.89067e-06
-4.19691e-07
-4.92488e-06
-1.44624e-06
-4.66339e-06
-2.67713e-06
-3.99168e-06
-3.98736e-06
-2.87829e-06
-5.04324e-06
-1.51053e-06
-5.26113e-06
-3.75318e-07
-4.025e-06
-1.39825e-06
-1.95858e-07
1.18537e-06
-6.10563e-07
2.61331e-06
-1.11336e-06
3.29229e-06
-1.63095e-06
3.48996e-06
-2.13401e-06
3.42865e-06
-2.61747e-06
3.24363e-06
-3.08699e-06
2.99862e-06
-3.55232e-06
2.71454e-06
-4.02409e-06
2.38895e-06
-4.51081e-06
2.0034e-06
-5.0133e-06
1.52258e-06
-5.51319e-06
8.89947e-07
-5.96347e-06
3.05847e-08
-6.24966e-06
-1.16006e-06
-6.19757e-06
-2.72922e-06
-5.58622e-06
-4.59871e-06
-4.2662e-06
-6.36326e-06
-2.3895e-06
-7.13783e-06
-6.40218e-07
-5.77428e-06
-2.03847e-06
-2.30131e-07
1.4155e-06
-7.04599e-07
3.08778e-06
-1.26445e-06
3.85215e-06
-1.8269e-06
4.05241e-06
-2.36418e-06
3.96593e-06
-2.87674e-06
3.75618e-06
-3.37681e-06
3.49869e-06
-3.88191e-06
3.21964e-06
-4.41284e-06
2.91989e-06
-4.99177e-06
2.58232e-06
-5.63656e-06
2.16737e-06
-6.34765e-06
1.60103e-06
-7.07842e-06
7.61358e-07
-7.71043e-06
-5.28048e-07
-8.00015e-06
-2.4395e-06
-7.60279e-06
-4.99607e-06
-6.19487e-06
-7.77119e-06
-3.78538e-06
-9.54732e-06
-1.16138e-06
-8.39828e-06
-3.19985e-06
-2.79254e-07
1.69475e-06
-8.2996e-07
3.63848e-06
-1.45305e-06
4.47524e-06
-2.05578e-06
4.65514e-06
-2.61498e-06
4.52514e-06
-3.13851e-06
4.27971e-06
-3.64543e-06
4.0056e-06
-4.16034e-06
3.73455e-06
-4.71344e-06
3.47299e-06
-5.34059e-06
3.20947e-06
-6.07888e-06
2.90566e-06
-6.95183e-06
2.47399e-06
-7.93625e-06
1.74578e-06
-8.91209e-06
4.47789e-07
-9.61067e-06
-1.74093e-06
-9.59956e-06
-5.00717e-06
-8.37716e-06
-8.99358e-06
-5.67398e-06
-1.22505e-05
-2.08093e-06
-1.19913e-05
-5.28078e-06
-3.55089e-07
2.04984e-06
-1.00638e-06
4.28978e-06
-1.69684e-06
5.1657e-06
-2.3268e-06
5.28509e-06
-2.88405e-06
5.08239e-06
-3.38633e-06
4.78199e-06
-3.85837e-06
4.47764e-06
-4.3284e-06
4.20459e-06
-4.83074e-06
3.97533e-06
-5.40833e-06
3.78706e-06
-6.11109e-06
3.60841e-06
-6.98352e-06
3.34642e-06
-8.03404e-06
2.7963e-06
-9.18128e-06
1.59504e-06
-1.01823e-05
-7.39885e-07
-1.06548e-05
-4.53473e-06
-9.99766e-06
-9.65069e-06
-7.58416e-06
-1.4664e-05
-3.38537e-06
-1.61901e-05
-8.66616e-06
-4.80883e-07
2.53072e-06
-1.26791e-06
5.0768e-06
-2.02042e-06
5.91821e-06
-2.64518e-06
5.90985e-06
-3.1541e-06
5.59132e-06
-3.57829e-06
5.20618e-06
-3.94621e-06
4.84556e-06
-4.28455e-06
4.54293e-06
-4.62304e-06
4.31382e-06
-4.99893e-06
4.16295e-06
-5.45938e-06
4.06887e-06
-6.05714e-06
3.94418e-06
-6.83413e-06
3.57329e-06
-7.79715e-06
2.55806e-06
-8.79804e-06
2.61002e-07
-9.67165e-06
-3.66112e-06
-9.86675e-06
-9.45559e-06
-8.48922e-06
-1.60415e-05
-4.63873e-06
-2.00406e-05
-1.33049e-05
-7.04045e-07
3.23477e-06
-1.6719e-06
6.04466e-06
-2.44672e-06
6.69303e-06
-2.98495e-06
6.44808e-06
-3.34771e-06
5.95408e-06
-3.58592e-06
5.44439e-06
-3.73271e-06
4.99234e-06
-3.81154e-06
4.62176e-06
-3.84224e-06
4.34452e-06
-3.84562e-06
4.16632e-06
-3.8494e-06
4.07265e-06
-3.89653e-06
3.9913e-06
-4.05194e-06
3.72869e-06
-4.40058e-06
2.9067e-06
-5.08712e-06
9.47542e-07
-6.05823e-06
-2.69002e-06
-7.10179e-06
-8.41203e-06
-7.30539e-06
-1.58379e-05
-5.04004e-06
-2.2306e-05
-1.83449e-05
-1.13133e-06
4.3661e-06
-2.30432e-06
7.21765e-06
-2.94213e-06
7.33084e-06
-3.17662e-06
6.68257e-06
-3.16479e-06
5.94225e-06
-2.99423e-06
5.27383e-06
-2.71206e-06
4.71017e-06
-2.34522e-06
4.25493e-06
-1.90801e-06
3.90731e-06
-1.406e-06
3.66431e-06
-8.44505e-07
3.51116e-06
-2.45962e-07
3.39276e-06
3.13297e-07
3.16943e-06
6.74061e-07
2.54593e-06
5.76106e-07
1.0455e-06
-1.58628e-07
-1.95528e-06
-1.70302e-06
-6.86763e-06
-3.563e-06
-1.39779e-05
-3.81235e-06
-2.20566e-05
-2.21573e-05
-2.03891e-06
6.40501e-06
-3.16015e-06
8.33888e-06
-3.05439e-06
7.22508e-06
-2.37474e-06
6.00292e-06
-1.46948e-06
5.03699e-06
-4.73561e-07
4.27791e-06
5.60402e-07
3.67621e-06
1.60818e-06
3.20715e-06
2.66355e-06
2.85195e-06
3.7348e-06
2.59306e-06
4.83513e-06
2.41083e-06
5.96636e-06
2.26153e-06
7.08157e-06
2.05422e-06
8.03022e-06
1.59729e-06
8.46722e-06
6.08495e-07
7.92984e-06
-1.4179e-06
6.01286e-06
-4.95065e-06
2.7346e-06
-1.06997e-05
-1.06754e-07
-1.92153e-05
-2.2264e-05
-3.6008e-06
1.00058e-05
-2.1869e-06
6.92498e-06
6.37783e-07
4.4004e-06
3.29045e-06
3.35026e-06
5.65244e-06
2.67499e-06
7.78001e-06
2.15035e-06
9.70394e-06
1.75228e-06
1.14507e-05
1.46043e-06
1.30533e-05
1.2493e-06
1.4549e-05
1.09734e-06
1.59716e-05
9.8828e-07
1.73383e-05
8.94833e-07
1.86184e-05
7.74127e-07
1.96664e-05
5.49269e-07
2.01281e-05
1.46777e-07
1.95281e-05
-8.17907e-07
1.71398e-05
-2.56239e-06
1.22659e-05
-5.82578e-06
5.1747e-06
-1.2124e-05
-1.70893e-05
1.00058e-05
1.69308e-05
2.13312e-05
2.46814e-05
2.73564e-05
2.95068e-05
3.12591e-05
3.27195e-05
3.39688e-05
3.50661e-05
3.60544e-05
3.69492e-05
3.77234e-05
3.82726e-05
3.84194e-05
3.76015e-05
3.50391e-05
2.92133e-05
1.70893e-05
)
;

boundaryField
{
    movingWall
    {
        type            calculated;
        value           uniform 0;
    }
    fixedWalls
    {
        type            calculated;
        value           uniform 0;
    }
    frontAndBack
    {
        type            empty;
        value           nonuniform 0();
    }
}


// ************************************************************************* //
