/*--------------------------------*- C++ -*----------------------------------*\
| =========                 |                                                 |
| \\      /  F ield         | OpenFOAM: The Open Source CFD Toolbox           |
|  \\    /   O peration     | Version:  5.0                                   |
|   \\  /    A nd           | Web:      www.OpenFOAM.org                      |
|    \\/     M anipulation  |                                                 |
\*---------------------------------------------------------------------------*/
FoamFile
{
    version     2.0;
    format      ascii;
    class       volVectorField;
    location    "0.2";
    object      U;
}
// * * * * * * * * * * * * * * * * * * * * * * * * * * * * * * * * * * * * * //

dimensions      [0 1 -1 0 0 0 0];

internalField   nonuniform List<vector> 
400
(
(2.92126e-05 -3.26595e-05 0)
(-0.000380818 0.000238343 0)
(-0.00147651 0.000431046 0)
(-0.00285973 0.000505352 0)
(-0.00431343 0.000512216 0)
(-0.00572019 0.000486828 0)
(-0.00701298 0.000443582 0)
(-0.00814431 0.000385051 0)
(-0.0090683 0.000308764 0)
(-0.00973387 0.000211225 0)
(-0.0100851 9.01023e-05 0)
(-0.0100656 -5.43384e-05 0)
(-0.00962706 -0.00021749 0)
(-0.00874175 -0.000388544 0)
(-0.00741942 -0.0005484 0)
(-0.00572986 -0.00066759 0)
(-0.00382681 -0.000705311 0)
(-0.00196294 -0.000610517 0)
(-0.000498873 -0.000339401 0)
(4.0385e-05 2.54049e-05 0)
(-0.000254744 0.000384051 0)
(-0.00162901 0.00157924 0)
(-0.00427224 0.00235771 0)
(-0.00744334 0.00267087 0)
(-0.0107216 0.00268586 0)
(-0.0138722 0.00253068 0)
(-0.0167392 0.00226776 0)
(-0.0192055 0.00191603 0)
(-0.021166 0.00147367 0)
(-0.022515 0.000933674 0)
(-0.0231463 0.000293234 0)
(-0.0229599 -0.000439271 0)
(-0.0218775 -0.00123711 0)
(-0.019865 -0.00204772 0)
(-0.016964 -0.0027844 0)
(-0.0133301 -0.00332014 0)
(-0.00926758 -0.00348894 0)
(-0.00524347 -0.00310389 0)
(-0.00192802 -0.0020294 0)
(-0.000273306 -0.000466866 0)
(-0.000488025 0.00155048 0)
(-0.00260481 0.00428602 0)
(-0.00635381 0.0059363 0)
(-0.0107202 0.00659346 0)
(-0.0151679 0.00658496 0)
(-0.0194092 0.00616723 0)
(-0.0232451 0.00547699 0)
(-0.0265215 0.00456467 0)
(-0.0291024 0.00343706 0)
(-0.0308544 0.00208862 0)
(-0.0316452 0.00052168 0)
(-0.0313508 -0.0012379 0)
(-0.0298737 -0.0031249 0)
(-0.0271709 -0.00501769 0)
(-0.0232936 -0.00672073 0)
(-0.0184383 -0.00795337 0)
(-0.0129897 -0.00835868 0)
(-0.00753569 -0.00755595 0)
(-0.00294297 -0.00528597 0)
(-0.000496514 -0.00177008 0)
(-0.000626855 0.00315144 0)
(-0.00324807 0.0078134 0)
(-0.00778638 0.0104681 0)
(-0.0129904 0.0114809 0)
(-0.0182391 0.0113994 0)
(-0.0232207 0.0106336 0)
(-0.0277201 0.00940465 0)
(-0.0315699 0.00779853 0)
(-0.0346205 0.00583194 0)
(-0.0367223 0.00350039 0)
(-0.0377214 0.000809989 0)
(-0.0374663 -0.0021971 0)
(-0.0358256 -0.00541553 0)
(-0.0327221 -0.00864538 0)
(-0.0281844 -0.0115614 0)
(-0.0224169 -0.0136935 0)
(-0.0158633 -0.0144444 0)
(-0.00923417 -0.0131841 0)
(-0.00360823 -0.0094743 0)
(-0.000605889 -0.00349247 0)
(-0.000714286 0.00503153 0)
(-0.00370133 0.0119047 0)
(-0.00884878 0.015661 0)
(-0.0147089 0.0170312 0)
(-0.0205911 0.0168408 0)
(-0.0261711 0.0156785 0)
(-0.0312323 0.0138573 0)
(-0.0356072 0.0114984 0)
(-0.039142 0.00862435 0)
(-0.0416748 0.00522451 0)
(-0.043027 0.00129869 0)
(-0.0430058 -0.00310595 0)
(-0.0414205 -0.00785323 0)
(-0.0381226 -0.0126643 0)
(-0.0330763 -0.0170644 0)
(-0.0264597 -0.0203463 0)
(-0.0187706 -0.0215966 0)
(-0.0108863 -0.0198498 0)
(-0.00417949 -0.0144283 0)
(-0.000666802 -0.00548722 0)
(-0.000786449 0.00712696 0)
(-0.0040947 0.0164683 0)
(-0.0097944 0.0214299 0)
(-0.0162617 0.0231745 0)
(-0.0227437 0.0228602 0)
(-0.0289105 0.0212816 0)
(-0.0345535 0.0188524 0)
(-0.0395144 0.0157277 0)
(-0.0436437 0.0119278 0)
(-0.0467703 0.00742245 0)
(-0.048687 0.00218633 0)
(-0.0491452 -0.00375152 0)
(-0.0478643 -0.0102467 0)
(-0.044576 -0.0169505 0)
(-0.0391184 -0.023218 0)
(-0.0315863 -0.0280342 0)
(-0.0225114 -0.0300437 0)
(-0.0129982 -0.0277943 0)
(-0.00486875 -0.020283 0)
(-0.000719424 -0.0077478 0)
(-0.000864226 0.00943144 0)
(-0.00451202 0.0214997 0)
(-0.0107931 0.0277784 0)
(-0.0179022 0.0299251 0)
(-0.0250254 0.0294864 0)
(-0.0318337 0.0274937 0)
(-0.0381365 0.024472 0)
(-0.0437969 0.0206084 0)
(-0.0486802 0.015911 0)
(-0.0526162 0.0103118 0)
(-0.0553722 0.00373226 0)
(-0.0566357 -0.00385445 0)
(-0.0560057 -0.0123404 0)
(-0.0530328 -0.0213364 0)
(-0.0473357 -0.0300194 0)
(-0.0388137 -0.036979 0)
(-0.0279539 -0.0402202 0)
(-0.0161321 -0.0375323 0)
(-0.00587966 -0.0274075 0)
(-0.00078301 -0.0103555 0)
(-0.000958857 0.0119745 0)
(-0.00500191 0.0270532 0)
(-0.0119444 0.0347673 0)
(-0.0197729 0.037345 0)
(-0.0276091 0.0367865 0)
(-0.0351339 0.0343963 0)
(-0.0421887 0.030824 0)
(-0.048674 0.026289 0)
(-0.05449 0.0207778 0)
(-0.0594874 0.0141632 0)
(-0.063427 0.00627723 0)
(-0.0659434 -0.00301836 0)
(-0.0664945 -0.013725 0)
(-0.0643787 -0.0254896 0)
(-0.05886 -0.037347 0)
(-0.049436 -0.0474125 0)
(-0.0363362 -0.052767 0)
(-0.0211607 -0.0499446 0)
(-0.00753705 -0.0365058 0)
(-0.000882822 -0.0134909 0)
(-0.00107789 0.0148067 0)
(-0.0055962 0.0332198 0)
(-0.0133095 0.04249 0)
(-0.0219514 0.0455168 0)
(-0.0305724 0.044836 0)
(-0.0388764 0.0420701 0)
(-0.0467551 0.0380123 0)
(-0.0541702 0.0329186 0)
(-0.0610866 0.0267481 0)
(-0.0674138 0.0192957 0)
(-0.0729493 0.0102609 0)
(-0.0773156 -0.000679725 0)
(-0.0798434 -0.0137232 0)
(-0.079521 -0.0287399 0)
(-0.075077 -0.0447537 0)
(-0.0652652 -0.0594057 0)
(-0.0496079 -0.0685013 0)
(-0.0296341 -0.0664499 0)
(-0.010515 -0.0488685 0)
(-0.00110114 -0.0175343 0)
(-0.00123078 0.0179953 0)
(-0.00632855 0.0401163 0)
(-0.0149438 0.0510543 0)
(-0.0244931 0.0545197 0)
(-0.0339483 0.0536906 0)
(-0.0430542 0.050565 0)
(-0.0517767 0.0461045 0)
(-0.0601683 0.040613 0)
(-0.0682989 0.0340271 0)
(-0.076196 0.0260577 0)
(-0.0837697 0.0162418 0)
(-0.090691 0.00399256 0)
(-0.0962701 -0.0112663 0)
(-0.0991954 -0.0298732 0)
(-0.0974318 -0.0511666 0)
(-0.0885175 -0.072542 0)
(-0.0705046 -0.0882307 0)
(-0.0440975 -0.0891578 0)
(-0.016201 -0.0668125 0)
(-0.00168831 -0.0233355 0)
(-0.00143525 0.021632 0)
(-0.00725364 0.0478888 0)
(-0.0169272 0.0605759 0)
(-0.0274675 0.0644128 0)
(-0.0377626 0.0633629 0)
(-0.047624 0.0598694 0)
(-0.0571198 0.0550928 0)
(-0.0664229 0.0494051 0)
(-0.0757506 0.0427415 0)
(-0.0853132 0.0347465 0)
(-0.0952355 0.0247908 0)
(-0.105405 0.0119469 0)
(-0.11525 -0.00497005 0)
(-0.123229 -0.0270563 0)
(-0.126441 -0.0546459 0)
(-0.120702 -0.0854935 0)
(-0.101606 -0.112254 0)
(-0.0677713 -0.120673 0)
(-0.0271286 -0.0941887 0)
(-0.00329715 -0.0327806 0)
(-0.00172716 0.0258538 0)
(-0.00847256 0.0567303 0)
(-0.0193977 0.071177 0)
(-0.0309915 0.0752188 0)
(-0.0420619 0.0737954 0)
(-0.0525272 0.0698741 0)
(-0.0625853 0.0648433 0)
(-0.0725496 0.059169 0)
(-0.082811 0.0528247 0)
(-0.0938157 0.0454396 0)
(-0.106008 0.0362539 0)
(-0.11966 0.0239728 0)
(-0.134469 0.00663651 0)
(-0.148946 -0.0182007 0)
(-0.159478 -0.0526673 0)
(-0.159841 -0.0959254 0)
(-0.142439 -0.139619 0)
(-0.102513 -0.163004 0)
(-0.0469435 -0.136356 0)
(-0.00737966 -0.049657 0)
(-0.0021791 0.0308859 0)
(-0.0101737 0.0669135 0)
(-0.0225967 0.0829851 0)
(-0.0352606 0.086899 0)
(-0.0469271 0.0848236 0)
(-0.0576858 0.0803236 0)
(-0.0678874 0.0750262 0)
(-0.0779767 0.0695105 0)
(-0.0884997 0.0638391 0)
(-0.100126 0.0577067 0)
(-0.113631 0.0503109 0)
(-0.129749 0.0400237 0)
(-0.148726 0.023957 0)
(-0.169421 -0.00225848 0)
(-0.187943 -0.0434271 0)
(-0.196644 -0.101236 0)
(-0.185005 -0.167559 0)
(-0.144494 -0.215438 0)
(-0.0781117 -0.198281 0)
(-0.016329 -0.0801714 0)
(-0.00293844 0.0371261 0)
(-0.0127053 0.078842 0)
(-0.0269283 0.0961165 0)
(-0.040566 0.0993002 0)
(-0.0524417 0.0961121 0)
(-0.0629282 0.0907435 0)
(-0.0725416 0.0850213 0)
(-0.0818075 0.0796262 0)
(-0.0913363 0.0747455 0)
(-0.101896 0.0702212 0)
(-0.114453 0.065322 0)
(-0.130097 0.0581763 0)
(-0.149697 0.0449411 0)
(-0.172921 0.0191726 0)
(-0.196507 -0.0271903 0)
(-0.213181 -0.099293 0)
(-0.211369 -0.19093 0)
(-0.179751 -0.271941 0)
(-0.115322 -0.279763 0)
(-0.0315955 -0.132517 0)
(-0.00430835 0.0453175 0)
(-0.0167089 0.0931155 0)
(-0.0330341 0.110596 0)
(-0.0472411 0.112023 0)
(-0.0585047 0.107018 0)
(-0.0676799 0.100304 0)
(-0.0754566 0.093776 0)
(-0.0823643 0.0881482 0)
(-0.0889419 0.0837152 0)
(-0.0958412 0.0804997 0)
(-0.103917 0.0779424 0)
(-0.114295 0.0741292 0)
(-0.128308 0.0646088 0)
(-0.146831 0.0414119 0)
(-0.168507 -0.00627274 0)
(-0.189184 -0.0880781 0)
(-0.198848 -0.201336 0)
(-0.185593 -0.318995 0)
(-0.140337 -0.369921 0)
(-0.0484675 -0.215678 0)
(-0.00693471 0.0569369 0)
(-0.0233832 0.110561 0)
(-0.0418347 0.126089 0)
(-0.0553204 0.124094 0)
(-0.0641043 0.116274 0)
(-0.0698825 0.107522 0)
(-0.073568 0.099558 0)
(-0.0756788 0.0929969 0)
(-0.0766193 0.0881493 0)
(-0.0767728 0.0851502 0)
(-0.0766139 0.0836361 0)
(-0.0769096 0.0819151 0)
(-0.0789835 0.0756403 0)
(-0.0848236 0.0566236 0)
(-0.0966394 0.0129112 0)
(-0.114648 -0.0680102 0)
(-0.133063 -0.190409 0)
(-0.142587 -0.337928 0)
(-0.131832 -0.445026 0)
(-0.0540022 -0.328429 0)
(-0.0122851 0.0750226 0)
(-0.0350196 0.132008 0)
(-0.0541705 0.141243 0)
(-0.0628782 0.133236 0)
(-0.0645107 0.121205 0)
(-0.0622915 0.109516 0)
(-0.057532 0.0993821 0)
(-0.0508781 0.091138 0)
(-0.0427103 0.0849391 0)
(-0.0332054 0.0808543 0)
(-0.022462 0.0786201 0)
(-0.0107852 0.0769571 0)
(0.000866836 0.072431 0)
(0.0103268 0.0580335 0)
(0.0135585 0.0228098 0)
(0.00511301 -0.0461326 0)
(-0.0166889 -0.158758 0)
(-0.0466542 -0.315271 0)
(-0.0814374 -0.473914 0)
(-0.0357018 -0.43565 0)
(-0.0239045 0.105736 0)
(-0.0556104 0.156764 0)
(-0.0662105 0.150362 0)
(-0.0565103 0.131756 0)
(-0.0393697 0.114083 0)
(-0.0198173 0.0992196 0)
(0.000747603 0.0871151 0)
(0.0217192 0.077517 0)
(0.0428303 0.0701891 0)
(0.0641268 0.0649219 0)
(0.0857994 0.0613953 0)
(0.107991 0.0586874 0)
(0.130068 0.0546127 0)
(0.150324 0.0444054 0)
(0.163699 0.0202183 0)
(0.163972 -0.0293875 0)
(0.142635 -0.114526 0)
(0.0985603 -0.249978 0)
(0.0134713 -0.430669 0)
(0.0155198 -0.472907 0)
(-0.0569618 0.184418 0)
(-0.0693226 0.167924 0)
(-0.0164861 0.122787 0)
(0.039521 0.0975971 0)
(0.0900765 0.0802051 0)
(0.135176 0.0665031 0)
(0.175715 0.0557703 0)
(0.212385 0.0476035 0)
(0.245791 0.0415157 0)
(0.276677 0.0370585 0)
(0.305595 0.0338642 0)
(0.333209 0.0312645 0)
(0.358776 0.0281059 0)
(0.38176 0.0218156 0)
(0.395362 0.00851508 0)
(0.396327 -0.0178682 0)
(0.368137 -0.0645203 0)
(0.30962 -0.149457 0)
(0.177689 -0.301387 0)
(0.125161 -0.389456 0)
(0.22358 0.131645 0)
(0.26902 0.110029 0)
(0.373847 0.0762534 0)
(0.460637 0.0551323 0)
(0.523346 0.0416213 0)
(0.570921 0.0319879 0)
(0.609202 0.0248707 0)
(0.640988 0.0196388 0)
(0.667834 0.0158341 0)
(0.691134 0.0130754 0)
(0.711554 0.0110908 0)
(0.730191 0.00956935 0)
(0.745783 0.00808219 0)
(0.759122 0.00598254 0)
(0.763146 0.00192413 0)
(0.758898 -0.00477238 0)
(0.722409 -0.0175834 0)
(0.661582 -0.0389964 0)
(0.499442 -0.0883671 0)
(0.365663 -0.144318 0)
)
;

boundaryField
{
    movingWall
    {
        type            fixedValue;
        value           uniform (1 0 0);
    }
    fixedWalls
    {
        type            noSlip;
    }
    frontAndBack
    {
        type            empty;
    }
}


// ************************************************************************* //
