/*--------------------------------*- C++ -*----------------------------------*\
| =========                 |                                                 |
| \\      /  F ield         | OpenFOAM: The Open Source CFD Toolbox           |
|  \\    /   O peration     | Version:  5.0                                   |
|   \\  /    A nd           | Web:      www.OpenFOAM.org                      |
|    \\/     M anipulation  |                                                 |
\*---------------------------------------------------------------------------*/
FoamFile
{
    version     2.0;
    format      ascii;
    class       volScalarField;
    location    "0.2";
    object      p;
}
// * * * * * * * * * * * * * * * * * * * * * * * * * * * * * * * * * * * * * //

dimensions      [0 2 -2 0 0 0 0];

internalField   nonuniform List<scalar> 
400
(
-3.25073e-08
-0.000980751
-0.002063
-0.00279988
-0.0029579
-0.00244367
-0.00125257
0.000564005
0.00291247
0.00565795
0.0086214
0.0115806
0.0142819
0.0164664
0.017911
0.0184798
0.0181778
0.0171936
0.0159112
0.0149162
0.000951195
-6.10448e-05
-0.00089389
-0.0013628
-0.00137513
-0.00086611
0.000174243
0.00171187
0.00367724
0.00596472
0.00843036
0.0108942
0.0131505
0.014991
0.0162386
0.0167883
0.0166481
0.0159593
0.0149536
0.0139395
0.00207735
0.000690858
-0.000202072
-0.000614219
-0.000593893
-0.000114968
0.000824021
0.00219487
0.00394427
0.00598852
0.0082077
0.010445
0.0125148
0.0142229
0.0153973
0.015927
0.0158024
0.0151248
0.0140025
0.0125789
0.00295463
0.001067
-3.58289e-05
-0.000509323
-0.000524094
-9.02411e-05
0.000781795
0.00206549
0.00371996
0.0056788
0.00783863
0.0100534
0.0121387
0.013889
0.0151088
0.0156537
0.0154808
0.0146576
0.0132045
0.0111844
0.00328199
0.000876822
-0.000476562
-0.00105142
-0.00112566
-0.000739602
8.73666e-05
0.00133207
0.00296698
0.00494296
0.00717126
0.00951194
0.0117719
0.0137194
0.0151144
0.0157576
0.015555
0.0145377
0.0126549
0.00993037
0.00281799
-0.000100382
-0.00171561
-0.00240645
-0.00254858
-0.00220704
-0.00140579
-0.000160742
0.00151755
0.00360056
0.00601661
0.00863199
0.0112402
0.013571
0.0153199
0.0162049
0.0160557
0.0148509
0.0124663
0.00890892
0.00134826
-0.00207986
-0.0039574
-0.00476652
-0.00497808
-0.00467871
-0.00389267
-0.00262329
-0.000857798
0.00140348
0.00411404
0.00715375
0.0103043
0.0132498
0.0155998
0.0169546
0.0170261
0.0157054
0.0127642
0.00819566
-0.00134101
-0.00527954
-0.00741355
-0.00833524
-0.00861537
-0.00836235
-0.00759739
-0.00630516
-0.0044404
-0.00196264
0.00112293
0.00472425
0.00862609
0.0124678
0.0157537
0.0179228
0.0185071
0.0172431
0.013727
0.00791544
-0.00547747
-0.00993173
-0.0123101
-0.0133296
-0.0136743
-0.0134787
-0.0127598
-0.0114776
-0.00954306
-0.00685796
-0.00336254
0.000907938
0.00576944
0.0108337
0.0154912
0.0189715
0.0205396
0.0196664
0.0156381
0.00831184
-0.0113095
-0.0162901
-0.0188865
-0.0199678
-0.0203572
-0.0202267
-0.0195908
-0.0183798
-0.0164495
-0.013624
-0.00974854
-0.00475808
0.00124007
0.00787296
0.0144321
0.0198986
0.0231644
0.023266
0.0189503
0.00983601
-0.0191154
-0.0246397
-0.0273923
-0.0284468
-0.0288143
-0.0287252
-0.0281973
-0.0271284
-0.0253089
-0.0224645
-0.0183119
-0.0126354
-0.00539723
0.00311995
0.0121652
0.0204674
0.0264415
0.0284626
0.0243747
0.0132805
-0.029232
-0.0353212
-0.0380855
-0.0389102
-0.0390852
-0.0389323
-0.0384812
-0.037596
-0.0359918
-0.0332784
-0.0290119
-0.0227733
-0.0143006
-0.00367838
0.00841363
0.0205205
0.0305255
0.0358834
0.0330145
0.0199957
-0.0421346
-0.0487858
-0.0512343
-0.0514036
-0.0510228
-0.0505484
-0.0500269
-0.049281
-0.0479396
-0.0454803
-0.0412731
-0.0346517
-0.0250579
-0.0122519
0.00332791
0.0202181
0.0358375
0.0465052
0.0465694
0.0322568
-0.0586457
-0.0657069
-0.0671182
-0.0658093
-0.0642012
-0.0629184
-0.0620049
-0.0612163
-0.06007
-0.0578912
-0.053846
-0.0469931
-0.0364338
-0.0214892
-0.00215962
0.0203736
0.0433359
0.0618799
0.0676555
0.0538983
-0.0804309
-0.0871805
-0.085992
-0.0817264
-0.0777963
-0.074944
-0.073128
-0.0719665
-0.0708113
-0.0687993
-0.064878
-0.0578323
-0.0463642
-0.029337
-0.0061327
0.0227145
0.0547631
0.0843613
0.100198
0.0912599
-0.111061
-0.115031
-0.107957
-0.0982795
-0.0904542
-0.0850406
-0.0817009
-0.0797689
-0.0783267
-0.0762611
-0.0722741
-0.0648614
-0.0523792
-0.0331813
-0.00593926
0.0298054
0.0726794
0.11715
0.149615
0.154005
-0.158276
-0.152152
-0.132816
-0.114075
-0.100355
-0.0913119
-0.0859105
-0.0829291
-0.0810138
-0.0787102
-0.0744302
-0.066399
-0.0526162
-0.0309439
0.000743288
0.044206
0.0999265
0.163926
0.222861
0.256448
-0.241581
-0.202082
-0.158751
-0.126459
-0.104897
-0.0915502
-0.0840754
-0.0802573
-0.0780807
-0.0756773
-0.0711711
-0.0625355
-0.0474236
-0.0232125
0.0131862
0.0652692
0.136281
0.226002
0.328917
0.42874
-0.41839
-0.264348
-0.172084
-0.12365
-0.0957329
-0.0801779
-0.0727381
-0.0698906
-0.068892
-0.0675655
-0.0639052
-0.0557935
-0.0406647
-0.015616
0.0234126
0.0820829
0.16822
0.291331
0.472348
0.737764
-0.763647
-0.324139
-0.14325
-0.0856216
-0.0613435
-0.0507685
-0.0485207
-0.0504128
-0.0534333
-0.0554999
-0.0548083
-0.0494494
-0.0373217
-0.0152296
0.0208532
0.0777509
0.168798
0.322829
0.620739
1.17933
)
;

boundaryField
{
    movingWall
    {
        type            zeroGradient;
    }
    fixedWalls
    {
        type            zeroGradient;
    }
    frontAndBack
    {
        type            empty;
    }
}


// ************************************************************************* //
