/*--------------------------------*- C++ -*----------------------------------*\
| =========                 |                                                 |
| \\      /  F ield         | OpenFOAM: The Open Source CFD Toolbox           |
|  \\    /   O peration     | Version:  5.0                                   |
|   \\  /    A nd           | Web:      www.OpenFOAM.org                      |
|    \\/     M anipulation  |                                                 |
\*---------------------------------------------------------------------------*/
FoamFile
{
    version     2.0;
    format      ascii;
    class       surfaceScalarField;
    location    "0.2";
    object      phi;
}
// * * * * * * * * * * * * * * * * * * * * * * * * * * * * * * * * * * * * * //

dimensions      [0 3 -1 0 0 0 0];

internalField   nonuniform List<scalar> 
760
(
8.4851e-09
-8.4846e-09
-2.6442e-08
3.49273e-08
-1.0486e-07
7.8417e-08
-2.1188e-07
1.0702e-07
-3.32279e-07
1.20398e-07
-4.52943e-07
1.20664e-07
-5.62958e-07
1.10015e-07
-6.53179e-07
9.02213e-08
-7.15852e-07
6.26734e-08
-7.44628e-07
2.87767e-08
-7.35076e-07
-9.55222e-09
-6.85608e-07
-4.94677e-08
-5.98583e-07
-8.70246e-08
-4.81244e-07
-1.17339e-07
-3.4607e-07
-1.35174e-07
-2.10138e-07
-1.35931e-07
-9.31758e-08
-1.16963e-07
-1.42076e-08
-7.89683e-08
1.41721e-08
-2.83795e-08
1.41719e-08
-3.42752e-08
2.57912e-08
-1.62295e-07
1.62947e-07
-3.73709e-07
2.89832e-07
-6.41596e-07
3.74907e-07
-9.35742e-07
4.14545e-07
-1.2276e-06
4.12517e-07
-1.49187e-06
3.74288e-07
-1.70677e-06
3.05123e-07
-1.854e-06
2.09902e-07
-1.9192e-06
9.39771e-08
-1.89315e-06
-3.55992e-08
-1.77353e-06
-1.69089e-07
-1.56692e-06
-2.93628e-07
-1.29035e-06
-3.93915e-07
-9.71493e-07
-4.54026e-07
-6.4693e-07
-4.60495e-07
-3.57576e-07
-4.06316e-07
-1.41403e-07
-2.95141e-07
-2.35447e-08
-1.46239e-07
-9.37288e-09
-8.29321e-08
1.08723e-07
-3.08294e-07
3.88307e-07
-6.4391e-07
6.25448e-07
-1.05041e-06
7.81407e-07
-1.48695e-06
8.51082e-07
-1.915e-06
8.40573e-07
-2.30002e-06
7.59302e-07
-2.61187e-06
6.16978e-07
-2.8252e-06
4.2323e-07
-2.92018e-06
1.88961e-07
-2.88416e-06
-7.16279e-08
-2.71388e-06
-3.39362e-07
-2.4181e-06
-5.89405e-07
-2.01952e-06
-7.925e-07
-1.55521e-06
-9.18334e-07
-1.07447e-06
-9.41241e-07
-6.33141e-07
-8.47641e-07
-2.84642e-07
-6.4364e-07
-6.85733e-08
-3.62307e-07
-7.79459e-08
-1.26918e-07
2.35642e-07
-4.45751e-07
7.07139e-07
-8.99909e-07
1.07961e-06
-1.435e-06
1.31649e-06
-2e-06
1.41609e-06
-2.54872e-06
1.38929e-06
-3.04019e-06
1.25078e-06
-3.43872e-06
1.0155e-06
-3.71391e-06
6.98423e-07
-3.84155e-06
3.16606e-07
-3.80538e-06
-1.07796e-07
-3.59979e-06
-5.44953e-07
-3.23302e-06
-9.56173e-07
-2.73004e-06
-1.29549e-06
-2.13388e-06
-1.51449e-06
-1.50414e-06
-1.57098e-06
-9.11282e-07
-1.4405e-06
-4.2674e-07
-1.12818e-06
-1.10448e-07
-6.78599e-07
-1.88393e-07
-1.66967e-07
4.02609e-07
-5.75068e-07
1.11524e-06
-1.14374e-06
1.64828e-06
-1.80254e-06
1.9753e-06
-2.49027e-06
2.10382e-06
-3.15411e-06
2.05312e-06
-3.74841e-06
1.84508e-06
-4.23352e-06
1.50062e-06
-4.57521e-06
1.04011e-06
-4.74506e-06
4.86456e-07
-4.72227e-06
-1.30582e-07
-4.49673e-06
-7.70496e-07
-4.07314e-06
-1.37976e-06
-3.47538e-06
-1.89324e-06
-2.7498e-06
-2.24008e-06
-1.96546e-06
-2.35531e-06
-1.20947e-06
-2.19649e-06
-5.76187e-07
-1.76147e-06
-1.52057e-07
-1.10273e-06
-3.4045e-07
-2.0506e-07
6.07668e-07
-6.99947e-07
1.61013e-06
-1.38092e-06
2.32925e-06
-2.16131e-06
2.75569e-06
-2.96988e-06
2.91239e-06
-3.74806e-06
2.8313e-06
-4.44681e-06
2.54383e-06
-5.02386e-06
2.07766e-06
-5.44188e-06
1.45813e-06
-5.6682e-06
7.12784e-07
-5.67629e-06
-1.22492e-07
-5.44904e-06
-9.97752e-07
-4.98411e-06
-1.84469e-06
-4.30038e-06
-2.57698e-06
-3.44422e-06
-3.09623e-06
-2.49313e-06
-3.3064e-06
-1.55326e-06
-3.13636e-06
-7.4818e-07
-2.56655e-06
-1.99066e-07
-1.65184e-06
-5.39517e-07
-2.42793e-07
8.5046e-07
-8.23771e-07
2.1911e-06
-1.61598e-06
3.12145e-06
-2.51643e-06
3.65614e-06
-3.44431e-06
3.84027e-06
-4.33639e-06
3.72338e-06
-5.14169e-06
3.34913e-06
-5.81676e-06
2.75274e-06
-6.32229e-06
1.96366e-06
-6.62161e-06
1.0121e-06
-6.68149e-06
-6.26026e-08
-6.47546e-06
-1.20379e-06
-5.99026e-06
-2.32989e-06
-5.23476e-06
-3.33248e-06
-4.25038e-06
-4.08061e-06
-3.11997e-06
-4.43681e-06
-1.96995e-06
-4.28638e-06
-9.6007e-07
-3.57643e-06
-2.57816e-07
-2.3541e-06
-7.97333e-07
-2.8121e-07
1.13167e-06
-9.48634e-07
2.85853e-06
-1.85078e-06
4.0236e-06
-2.86792e-06
4.67328e-06
-3.91031e-06
4.88266e-06
-4.91157e-06
4.72464e-06
-5.82079e-06
4.25836e-06
-6.59548e-06
3.52743e-06
-7.19621e-06
2.56439e-06
-7.5835e-06
1.39939e-06
-7.71744e-06
7.13454e-08
-7.56065e-06
-1.36058e-06
-7.08506e-06
-2.80548e-06
-6.28342e-06
-4.13412e-06
-5.18464e-06
-5.17939e-06
-3.87013e-06
-5.75132e-06
-2.48437e-06
-5.67214e-06
-1.22958e-06
-4.83122e-06
-3.35068e-07
-3.24861e-06
-1.1324e-06
-3.20982e-07
1.45265e-06
-1.07548e-06
3.61303e-06
-2.08442e-06
5.03254e-06
-3.21019e-06
5.79905e-06
-4.35495e-06
6.02742e-06
-5.45129e-06
5.82097e-06
-6.45122e-06
5.25829e-06
-7.31634e-06
4.39255e-06
-8.0102e-06
3.25825e-06
-8.49328e-06
1.88247e-06
-8.7208e-06
2.98871e-07
-8.64449e-06
-1.4369e-06
-8.21867e-06
-3.2313e-06
-7.4134e-06
-4.93938e-06
-6.23466e-06
-6.35813e-06
-4.75028e-06
-7.23571e-06
-3.11416e-06
-7.30825e-06
-1.5735e-06
-6.37188e-06
-4.3817e-07
-4.38395e-06
-1.57057e-06
-3.63021e-07
1.81567e-06
-1.20531e-06
4.45532e-06
-2.31448e-06
6.14171e-06
-3.53296e-06
7.01753e-06
-4.75597e-06
7.25044e-06
-5.91815e-06
6.98315e-06
-6.97837e-06
6.3185e-06
-7.90669e-06
5.32086e-06
-8.6743e-06
4.02586e-06
-9.24633e-06
2.4545e-06
-9.57751e-06
6.30049e-07
-9.61133e-06
-1.40308e-06
-9.28433e-06
-3.55831e-06
-8.53833e-06
-5.68537e-06
-7.34408e-06
-7.55239e-06
-5.73737e-06
-8.84241e-06
-3.86285e-06
-9.18278e-06
-2.00587e-06
-8.22886e-06
-5.7547e-07
-5.81435e-06
-2.14604e-06
-4.09667e-07
2.22534e-06
-1.34147e-06
5.38712e-06
-2.53957e-06
7.33981e-06
-3.8233e-06
8.30126e-06
-5.08319e-06
8.51033e-06
-6.26055e-06
8.16051e-06
-7.32649e-06
7.38444e-06
-8.26527e-06
6.25964e-06
-9.06185e-06
4.82244e-06
-9.69273e-06
3.08539e-06
-1.01192e-05
1.0565e-06
-1.02831e-05
-1.23919e-06
-1.01071e-05
-3.73431e-06
-9.50298e-06
-6.28946e-06
-8.39467e-06
-8.6607e-06
-6.76224e-06
-1.04748e-05
-4.70909e-06
-1.12359e-05
-2.53453e-06
-1.04034e-05
-7.56821e-07
-7.59206e-06
-2.90286e-06
-4.66782e-07
2.69212e-06
-1.49332e-06
6.41366e-06
-2.7627e-06
8.60919e-06
-4.06792e-06
9.60648e-06
-5.29978e-06
9.74219e-06
-6.41363e-06
9.27436e-06
-7.40021e-06
8.37102e-06
-8.26492e-06
7.12435e-06
-9.01361e-06
5.57113e-06
-9.64214e-06
3.71392e-06
-1.01277e-05
1.54201e-06
-1.04208e-05
-9.46035e-07
-1.04402e-05
-3.71491e-06
-1.00727e-05
-6.657e-06
-9.18913e-06
-9.54425e-06
-7.68938e-06
-1.19746e-05
-5.59037e-06
-1.33349e-05
-3.15428e-06
-1.28395e-05
-9.93989e-07
-9.75236e-06
-3.89685e-06
-5.47366e-07
3.23949e-06
-1.68103e-06
7.54732e-06
-2.99413e-06
9.9223e-06
-4.25294e-06
1.08653e-05
-5.35988e-06
1.08491e-05
-6.29667e-06
1.02111e-05
-7.08363e-06
9.15798e-06
-7.75507e-06
7.79579e-06
-8.34457e-06
6.16063e-06
-8.87493e-06
4.24428e-06
-9.349e-06
2.01608e-06
-9.73896e-06
-5.56072e-07
-9.97522e-06
-3.47865e-06
-9.9343e-06
-6.69792e-06
-9.44018e-06
-1.00384e-05
-8.29608e-06
-1.31187e-05
-6.38042e-06
-1.52506e-05
-3.83415e-06
-1.53858e-05
-1.30026e-06
-1.22863e-05
-5.19711e-06
-6.77576e-07
3.91706e-06
-1.94042e-06
8.81016e-06
-3.24872e-06
1.12306e-05
-4.35371e-06
1.19703e-05
-5.19417e-06
1.16896e-05
-5.79826e-06
1.08152e-05
-6.22875e-06
9.58847e-06
-6.55625e-06
8.12329e-06
-6.84658e-06
6.45096e-06
-7.1538e-06
4.5515e-06
-7.5134e-06
2.37568e-06
-7.93075e-06
-1.38723e-07
-8.36734e-06
-3.04205e-06
-8.71431e-06
-6.35095e-06
-8.77312e-06
-9.97955e-06
-8.25586e-06
-1.3636e-05
-6.86045e-06
-1.6646e-05
-4.49446e-06
-1.77518e-05
-1.68676e-06
-1.50939e-05
-6.88387e-06
-9.05365e-07
4.82243e-06
-2.32119e-06
1.0226e-05
-3.5241e-06
1.24335e-05
-4.29723e-06
1.27434e-05
-4.66499e-06
1.20573e-05
-4.73199e-06
1.08822e-05
-4.61748e-06
9.47396e-06
-4.43231e-06
7.93812e-06
-4.27327e-06
6.29192e-06
-4.22297e-06
4.50119e-06
-4.34884e-06
2.50155e-06
-4.69643e-06
2.08866e-07
-5.27212e-06
-2.46636e-06
-6.01425e-06
-5.60882e-06
-6.74642e-06
-9.24738e-06
-7.13175e-06
-1.32506e-05
-6.68421e-06
-1.70935e-05
-4.96508e-06
-1.94709e-05
-2.14717e-06
-1.79119e-05
-9.03105e-06
-1.30463e-06
6.12706e-06
-2.8524e-06
1.17738e-05
-3.72001e-06
1.33011e-05
-3.85582e-06
1.28792e-05
-3.45552e-06
1.1657e-05
-2.73471e-06
1.01614e-05
-1.87582e-06
8.61507e-06
-1.02313e-06
7.08543e-06
-2.92111e-07
5.5609e-06
2.19514e-07
3.98957e-06
4.24832e-07
2.29623e-06
2.447e-07
3.88997e-07
-3.77726e-07
-1.84393e-06
-1.45446e-06
-4.53209e-06
-2.88898e-06
-7.81286e-06
-4.38187e-06
-1.17577e-05
-5.33499e-06
-1.61404e-05
-4.90976e-06
-1.98961e-05
-2.60972e-06
-2.02119e-05
-1.16408e-05
-1.94268e-06
8.06974e-06
-3.38295e-06
1.3214e-05
-3.39366e-06
1.33118e-05
-2.38719e-06
1.18728e-05
-8.36931e-07
1.01068e-05
9.22951e-07
8.40155e-06
2.67192e-06
6.8661e-06
4.26419e-06
5.49316e-06
5.59612e-06
4.22897e-06
6.58188e-06
3.00381e-06
7.13729e-06
1.74083e-06
7.17143e-06
3.54858e-07
6.58707e-06
-1.25957e-06
5.29432e-06
-3.23934e-06
3.26055e-06
-5.77909e-06
6.29284e-07
-9.12647e-06
-2.06823e-06
-1.34429e-05
-3.70488e-06
-1.82595e-05
-2.83942e-06
-2.10774e-05
-1.44802e-05
-2.69799e-06
1.07677e-05
-3.01235e-06
1.35284e-05
-1.11035e-06
1.14098e-05
1.71173e-06
9.05067e-06
4.72645e-06
7.09207e-06
7.5959e-06
5.53209e-06
1.01611e-05
4.30092e-06
1.23455e-05
3.3087e-06
1.41059e-05
2.46858e-06
1.54032e-05
1.70659e-06
1.61852e-05
9.5874e-07
1.63753e-05
1.64814e-07
1.58679e-05
-7.52227e-07
1.45158e-05
-1.8872e-06
1.21487e-05
-3.41194e-06
8.64866e-06
-5.62648e-06
4.20287e-06
-8.99711e-06
-1.7242e-07
-1.38842e-05
-2.21605e-06
-1.90337e-05
-1.66962e-05
-1.74166e-06
1.25094e-05
1.82033e-06
9.96639e-06
6.98345e-06
6.24671e-06
1.18134e-05
4.22067e-06
1.59366e-05
2.96896e-06
1.93503e-05
2.11835e-06
2.21221e-05
1.52911e-06
2.43245e-05
1.10628e-06
2.60123e-05
7.8082e-07
2.72127e-05
5.06188e-07
2.79215e-05
2.4989e-07
2.80957e-05
-9.37713e-09
2.76583e-05
-3.14834e-07
2.64565e-05
-6.85348e-07
2.42496e-05
-1.20504e-06
2.0666e-05
-2.04285e-06
1.52841e-05
-3.61521e-06
8.17743e-06
-6.77756e-06
1.46381e-06
-1.23201e-05
-1.52324e-05
1.25094e-05
2.24758e-05
2.87225e-05
3.29432e-05
3.59121e-05
3.80305e-05
3.95596e-05
4.06659e-05
4.14467e-05
4.19529e-05
4.22028e-05
4.21934e-05
4.18785e-05
4.11932e-05
3.99881e-05
3.79453e-05
3.43301e-05
2.75525e-05
1.52324e-05
)
;

boundaryField
{
    movingWall
    {
        type            calculated;
        value           uniform 0;
    }
    fixedWalls
    {
        type            calculated;
        value           uniform 0;
    }
    frontAndBack
    {
        type            empty;
        value           nonuniform 0();
    }
}


// ************************************************************************* //
