/*--------------------------------*- C++ -*----------------------------------*\
| =========                 |                                                 |
| \\      /  F ield         | OpenFOAM: The Open Source CFD Toolbox           |
|  \\    /   O peration     | Version:  5.0                                   |
|   \\  /    A nd           | Web:      www.OpenFOAM.org                      |
|    \\/     M anipulation  |                                                 |
\*---------------------------------------------------------------------------*/
FoamFile
{
    version     2.0;
    format      ascii;
    class       volVectorField;
    location    "0.2";
    object      U;
}
// * * * * * * * * * * * * * * * * * * * * * * * * * * * * * * * * * * * * * //

dimensions      [0 1 -1 0 0 0 0];

internalField   nonuniform List<vector> 
400
(
(0.00018109 -0.000181442 0)
(5.14188e-06 0.000133988 0)
(-0.00116891 0.000488826 0)
(-0.00308318 0.000720935 0)
(-0.00541517 0.000830423 0)
(-0.00787704 0.000840584 0)
(-0.0102278 0.000772153 0)
(-0.0122671 0.000639516 0)
(-0.0138264 0.000451963 0)
(-0.0147631 0.000217685 0)
(-0.0149668 -5.14701e-05 0)
(-0.0143733 -0.000336168 0)
(-0.0129867 -0.000607459 0)
(-0.0109011 -0.000827858 0)
(-0.00831473 -0.000955639 0)
(-0.00552908 -0.000952559 0)
(-0.00292305 -0.000794339 0)
(-0.000898211 -0.000482725 0)
(0.000198445 -7.10359e-05 0)
(0.000238761 0.000228968 0)
(-0.000121739 -2.2053e-05 0)
(-0.00153297 0.00152477 0)
(-0.0050159 0.00306313 0)
(-0.00996117 0.00410014 0)
(-0.0157227 0.00459244 0)
(-0.02171 0.00459813 0)
(-0.0273831 0.00418997 0)
(-0.0322699 0.00343189 0)
(-0.035968 0.00237821 0)
(-0.0381471 0.00108594 0)
(-0.0385648 -0.000368526 0)
(-0.0370972 -0.00187559 0)
(-0.0337792 -0.00328685 0)
(-0.0288427 -0.00442195 0)
(-0.0227384 -0.00509042 0)
(-0.0161236 -0.00512846 0)
(-0.00979722 -0.00444739 0)
(-0.00457734 -0.00308628 0)
(-0.00117356 -0.00129013 0)
(-2.29619e-06 0.000231011 0)
(-0.00050338 0.00115438 0)
(-0.00328382 0.00505724 0)
(-0.00904399 0.00854503 0)
(-0.0166974 0.0108821 0)
(-0.0253272 0.0119613 0)
(-0.0341512 0.0118714 0)
(-0.0424401 0.0107551 0)
(-0.0495439 0.00875662 0)
(-0.0549048 0.00601576 0)
(-0.0580658 0.00268862 0)
(-0.0586928 -0.00102054 0)
(-0.0566157 -0.00483282 0)
(-0.0518792 -0.00838559 0)
(-0.0447916 -0.0112505 0)
(-0.0359546 -0.0129846 0)
(-0.0262507 -0.0132164 0)
(-0.0167593 -0.0117558 0)
(-0.00859967 -0.00870926 0)
(-0.00283034 -0.00460478 0)
(-0.000335965 -0.000685302 0)
(-0.000837865 0.00326871 0)
(-0.00491264 0.0105339 0)
(-0.0128693 0.016498 0)
(-0.0230742 0.020375 0)
(-0.0343226 0.0220694 0)
(-0.0456742 0.0217351 0)
(-0.056266 0.0196045 0)
(-0.0653288 0.0159197 0)
(-0.072199 0.0109248 0)
(-0.076325 0.00489825 0)
(-0.0772916 -0.00179818 0)
(-0.0748664 -0.00867775 0)
(-0.0690615 -0.0151134 0)
(-0.0601987 -0.0203661 0)
(-0.048958 -0.0236688 0)
(-0.0363837 -0.024368 0)
(-0.0238027 -0.0221101 0)
(-0.0126546 -0.0170301 0)
(-0.00443431 -0.00991697 0)
(-0.00062528 -0.00247566 0)
(-0.00113137 0.00621669 0)
(-0.0064209 0.01782 0)
(-0.0164973 0.0267455 0)
(-0.0291661 0.0323362 0)
(-0.0429232 0.0346206 0)
(-0.0566817 0.033881 0)
(-0.0694753 0.030472 0)
(-0.0804522 0.0247484 0)
(-0.0888732 0.0170639 0)
(-0.0941074 0.00782158 0)
(-0.0956514 -0.00245578 0)
(-0.0931795 -0.0130623 0)
(-0.0866177 -0.0230799 0)
(-0.0762333 -0.0314094 0)
(-0.0627199 -0.0368819 0)
(-0.0472427 -0.0384613 0)
(-0.0313852 -0.0355197 0)
(-0.0169776 -0.028124 0)
(-0.00607705 -0.017262 0)
(-0.000891204 -0.00508284 0)
(-0.00140501 0.00994077 0)
(-0.0078652 0.0268564 0)
(-0.0200156 0.0392489 0)
(-0.0351048 0.0467355 0)
(-0.0513274 0.0495897 0)
(-0.0674601 0.0483016 0)
(-0.082457 0.0433915 0)
(-0.0954119 0.0353415 0)
(-0.105533 0.0246115 0)
(-0.112119 0.0117133 0)
(-0.114567 -0.0026876 0)
(-0.11242 -0.0176773 0)
(-0.105457 -0.0320369 0)
(-0.0938126 -0.0442605 0)
(-0.0781149 -0.0526826 0)
(-0.0596008 -0.0557389 0)
(-0.0401176 -0.0523539 0)
(-0.021974 -0.0423686 0)
(-0.00795525 -0.0268863 0)
(-0.00118304 -0.00855386 0)
(-0.00167534 0.0144191 0)
(-0.00929682 0.0376165 0)
(-0.023505 0.0539869 0)
(-0.0409881 0.0635555 0)
(-0.0596421 0.0669684 0)
(-0.0781226 0.0650151 0)
(-0.0953315 0.0584315 0)
(-0.11034 0.0478426 0)
(-0.12233 0.0338011 0)
(-0.130547 0.0168955 0)
(-0.13428 -0.00210769 0)
(-0.132912 -0.0221234 0)
(-0.126009 -0.0416461 0)
(-0.113481 -0.0587294 0)
(-0.0957856 -0.0711049 0)
(-0.0741401 -0.0764916 0)
(-0.0506248 -0.0731137 0)
(-0.0281021 -0.0603377 0)
(-0.0102984 -0.039243 0)
(-0.00155597 -0.0130578 0)
(-0.00195346 0.0196561 0)
(-0.0107505 0.0501002 0)
(-0.0270116 0.0709419 0)
(-0.0468424 0.0827579 0)
(-0.0678407 0.0867091 0)
(-0.088565 0.0839891 0)
(-0.107902 0.0756089 0)
(-0.124943 0.0623516 0)
(-0.138888 0.044843 0)
(-0.148958 0.0237007 0)
(-0.154353 -0.000273662 0)
(-0.154278 -0.0258926 0)
(-0.148036 -0.0514138 0)
(-0.135212 -0.0744482 0)
(-0.11595 -0.0920295 0)
(-0.09129 -0.100938 0)
(-0.0634334 -0.0983549 0)
(-0.0358159 -0.0827827 0)
(-0.0133538 -0.0550092 0)
(-0.00207129 -0.018896 0)
(-0.00224766 0.0256729 0)
(-0.0122491 0.0643204 0)
(-0.0305482 0.0900772 0)
(-0.0526162 0.104242 0)
(-0.0757496 0.108661 0)
(-0.0984431 0.105059 0)
(-0.119621 0.0947919 0)
(-0.138455 0.078821 0)
(-0.154228 0.0578218 0)
(-0.166198 0.032382 0)
(-0.173522 0.00325154 0)
(-0.175253 -0.0283859 0)
(-0.170406 -0.0606507 0)
(-0.158151 -0.090768 0)
(-0.138146 -0.115027 0)
(-0.111013 -0.129052 0)
(-0.0788339 -0.128544 0)
(-0.0455107 -0.110557 0)
(-0.0173847 -0.0750763 0)
(-0.00280271 -0.0265122 0)
(-0.00257044 0.0325032 0)
(-0.0138232 0.0802905 0)
(-0.0341197 0.111303 0)
(-0.0582036 0.127783 0)
(-0.0830612 0.132484 0)
(-0.107173 0.127818 0)
(-0.129574 0.115574 0)
(-0.149605 0.0969189 0)
(-0.166717 0.0725564 0)
(-0.180302 0.0429821 0)
(-0.189571 0.00879119 0)
(-0.193496 -0.0289756 0)
(-0.190841 -0.0684637 0)
(-0.180312 -0.10666 0)
(-0.160905 -0.139168 0)
(-0.132514 -0.160302 0)
(-0.0966818 -0.163805 0)
(-0.0574425 -0.144449 0)
(-0.0226734 -0.100503 0)
(-0.003848 -0.0365079 0)
(-0.00295193 0.0402086 0)
(-0.0155495 0.0980298 0)
(-0.0377761 0.134447 0)
(-0.0634917 0.152965 0)
(-0.0893683 0.157548 0)
(-0.113954 0.151497 0)
(-0.1365 0.137137 0)
(-0.156624 0.115878 0)
(-0.174071 0.0884401 0)
(-0.18849 0.0551693 0)
(-0.199285 0.0164011 0)
(-0.205493 -0.027129 0)
(-0.205741 -0.0738159 0)
(-0.198308 -0.120672 0)
(-0.181416 -0.162838 0)
(-0.153878 -0.193343 0)
(-0.116106 -0.203553 0)
(-0.0715869 -0.1849 0)
(-0.0295147 -0.132414 0)
(-0.00534687 -0.0496699 0)
(-0.00346522 0.0489249 0)
(-0.0176149 0.117598 0)
(-0.0416871 0.15923 0)
(-0.0684191 0.179102 0)
(-0.0941977 0.182822 0)
(-0.117784 0.174832 0)
(-0.138803 0.158113 0)
(-0.157293 0.134354 0)
(-0.173424 0.104286 0)
(-0.187257 0.0680668 0)
(-0.198558 0.0256831 0)
(-0.20663 -0.0225969 0)
(-0.210176 -0.0756809 0)
(-0.207221 -0.130986 0)
(-0.195234 -0.183633 0)
(-0.171673 -0.225697 0)
(-0.13511 -0.246013 0)
(-0.0873917 -0.23154 0)
(-0.0381813 -0.171797 0)
(-0.00750598 -0.067011 0)
(-0.00427324 0.0589666 0)
(-0.0204162 0.139161 0)
(-0.0462269 0.185226 0)
(-0.0729997 0.205123 0)
(-0.0969757 0.206735 0)
(-0.117405 0.195939 0)
(-0.134517 0.176471 0)
(-0.148943 0.150321 0)
(-0.161421 0.118224 0)
(-0.172556 0.0801248 0)
(-0.182647 0.0356116 0)
(-0.191486 -0.0156378 0)
(-0.198147 -0.0732968 0)
(-0.200726 -0.135637 0)
(-0.196192 -0.198424 0)
(-0.180613 -0.253536 0)
(-0.150085 -0.28768 0)
(-0.103376 -0.282522 0)
(-0.0488178 -0.219112 0)
(-0.0106268 -0.0898179 0)
(-0.00571338 0.0710298 0)
(-0.0247002 0.163076 0)
(-0.0520072 0.211747 0)
(-0.0771881 0.229365 0)
(-0.0967662 0.226975 0)
(-0.110987 0.212165 0)
(-0.121019 0.189447 0)
(-0.12828 0.161064 0)
(-0.134178 0.127712 0)
(-0.139943 0.0891131 0)
(-0.146501 0.0444566 0)
(-0.154314 -0.00720753 0)
(-0.163129 -0.0664903 0)
(-0.171566 -0.132919 0)
(-0.17664 -0.203706 0)
(-0.173422 -0.271748 0)
(-0.155304 -0.322884 0)
(-0.116521 -0.333641 0)
(-0.0611595 -0.273561 0)
(-0.0151049 -0.119645 0)
(-0.00842873 0.0865437 0)
(-0.0316929 0.189901 0)
(-0.0596502 0.23751 0)
(-0.0802534 0.249173 0)
(-0.0914056 0.240186 0)
(-0.0952073 0.219949 0)
(-0.0941903 0.193561 0)
(-0.0907089 0.163316 0)
(-0.0868496 0.129752 0)
(-0.0844062 0.0923385 0)
(-0.0848897 0.0499171 0)
(-0.0894664 0.000988862 0)
(-0.0987469 -0.0559617 0)
(-0.112332 -0.121936 0)
(-0.128074 -0.196305 0)
(-0.141024 -0.274492 0)
(-0.142488 -0.343755 0)
(-0.121374 -0.377428 0)
(-0.0738231 -0.331886 0)
(-0.0212715 -0.158116 0)
(-0.0134618 0.108278 0)
(-0.0428887 0.22004 0)
(-0.0686069 0.259768 0)
(-0.0788118 0.260126 0)
(-0.0752486 0.241537 0)
(-0.0630777 0.214745 0)
(-0.0465169 0.184827 0)
(-0.0287992 0.153676 0)
(-0.0124692 0.121422 0)
(0.000390817 0.0872187 0)
(0.00795125 0.049641 0)
(0.00855075 0.00685811 0)
(0.000760734 -0.0432813 0)
(-0.0162772 -0.103071 0)
(-0.0420495 -0.174322 0)
(-0.0730864 -0.256339 0)
(-0.100472 -0.34088 0)
(-0.108725 -0.40256 0)
(-0.082717 -0.386759 0)
(-0.0286973 -0.206689 0)
(-0.0218347 0.141631 0)
(-0.0582088 0.252011 0)
(-0.0728797 0.271705 0)
(-0.0614952 0.254209 0)
(-0.0341032 0.223927 0)
(0.000304487 0.191018 0)
(0.0362364 0.159245 0)
(0.0702216 0.129365 0)
(0.0998963 0.100762 0)
(0.123457 0.0722114 0)
(0.139267 0.0421496 0)
(0.145603 0.00872221 0)
(0.140584 -0.0303695 0)
(0.122233 -0.0780355 0)
(0.0889856 -0.137974 0)
(0.0412797 -0.213779 0)
(-0.0149078 -0.304678 0)
(-0.0637698 -0.393706 0)
(-0.0782418 -0.424523 0)
(-0.0342228 -0.266422 0)
(-0.0312421 0.195202 0)
(-0.0679532 0.276395 0)
(-0.0480046 0.256509 0)
(0.00348922 0.217031 0)
(0.064197 0.177742 0)
(0.124131 0.143303 0)
(0.179016 0.114318 0)
(0.226802 0.0897781 0)
(0.266441 0.068196 0)
(0.297215 0.0480647 0)
(0.318282 0.0279189 0)
(0.328397 0.00623256 0)
(0.325795 -0.018829 0)
(0.307956 -0.0497996 0)
(0.27158 -0.0907199 0)
(0.213347 -0.147898 0)
(0.132663 -0.228842 0)
(0.0371735 -0.332926 0)
(-0.0402108 -0.420012 0)
(-0.0264478 -0.329277 0)
(-0.0110521 0.25385 0)
(-0.0151948 0.260135 0)
(0.0826405 0.190758 0)
(0.189522 0.138804 0)
(0.280473 0.102371 0)
(0.355664 0.075986 0)
(0.417251 0.0566696 0)
(0.466781 0.0421307 0)
(0.505525 0.0305441 0)
(0.534344 0.0205498 0)
(0.553505 0.0111025 0)
(0.562557 0.00130021 0)
(0.560366 -0.00975231 0)
(0.544697 -0.0235174 0)
(0.51179 -0.0425034 0)
(0.455747 -0.0719563 0)
(0.367922 -0.122743 0)
(0.236943 -0.211007 0)
(0.0820044 -0.331289 0)
(0.0370149 -0.337526 0)
(0.280493 0.141678 0)
(0.359152 0.124017 0)
(0.50665 0.0784246 0)
(0.619983 0.0492509 0)
(0.692838 0.0317774 0)
(0.742303 0.0208353 0)
(0.77787 0.0138481 0)
(0.803762 0.00926509 0)
(0.822354 0.00606425 0)
(0.835064 0.00359591 0)
(0.842575 0.00144189 0)
(0.845011 -0.000694453 0)
(0.841925 -0.00299046 0)
(0.832209 -0.0058712 0)
(0.813811 -0.00997618 0)
(0.782382 -0.0168688 0)
(0.728235 -0.0307997 0)
(0.62489 -0.0620294 0)
(0.448388 -0.123111 0)
(0.323966 -0.155158 0)
)
;

boundaryField
{
    movingWall
    {
        type            fixedValue;
        value           uniform (1 0 0);
    }
    fixedWalls
    {
        type            noSlip;
    }
    frontAndBack
    {
        type            empty;
    }
}


// ************************************************************************* //
