/*--------------------------------*- C++ -*----------------------------------*\
| =========                 |                                                 |
| \\      /  F ield         | OpenFOAM: The Open Source CFD Toolbox           |
|  \\    /   O peration     | Version:  5.0                                   |
|   \\  /    A nd           | Web:      www.OpenFOAM.org                      |
|    \\/     M anipulation  |                                                 |
\*---------------------------------------------------------------------------*/
FoamFile
{
    version     2.0;
    format      ascii;
    class       volScalarField;
    location    "0.3";
    object      p;
}
// * * * * * * * * * * * * * * * * * * * * * * * * * * * * * * * * * * * * * //

dimensions      [0 2 -2 0 0 0 0];

internalField   nonuniform List<scalar> 
400
(
-2.85377e-08
-0.00108861
-0.00233828
-0.00324888
-0.00355636
-0.00314874
-0.00201088
-0.000188931
0.00222299
0.00508126
0.00818779
0.0112912
0.0141027
0.0163293
0.0177242
0.0181478
0.0176276
0.0164016
0.0149127
0.0138303
0.0010699
-5.65328e-05
-0.00102368
-0.0016271
-0.00176192
-0.00135257
-0.000381249
0.00112342
0.00309412
0.00542171
0.00795082
0.0104822
0.0127852
0.0146265
0.0158118
0.0162333
0.0159156
0.0150345
0.0138668
0.0127662
0.00238594
0.000832555
-0.000201939
-0.000738755
-0.000835387
-0.000462534
0.000386456
0.00168945
0.00339867
0.00543201
0.00766416
0.00992456
0.0120072
0.0136955
0.0148001
0.0152047
0.0149114
0.0140486
0.0127547
0.0111961
0.00345456
0.00133326
6.39827e-05
-0.000541571
-0.000683082
-0.00037378
0.000379616
0.00155832
0.00313112
0.00503862
0.00717723
0.00939091
0.011476
0.0132029
0.0143544
0.0147756
0.0144296
0.0134061
0.0117454
0.00952471
0.00391612
0.00121698
-0.00032883
-0.00104982
-0.00127023
-0.00103793
-0.000368366
0.000726248
0.00223343
0.00411738
0.00629491
0.00861969
0.0108798
0.0128158
0.0141593
0.0146911
0.0143159
0.0130811
0.0109472
0.00794676
0.00347985
0.000226036
-0.00160164
-0.00245595
-0.00277196
-0.00262448
-0.00203139
-0.000992685
0.000503054
0.00244839
0.00478432
0.0073753
0.00999679
0.0123467
0.0140825
0.0148902
0.0145859
0.0131569
0.0104822
0.00657519
0.00189295
-0.00188373
-0.00398315
-0.00497446
-0.00539512
-0.00534156
-0.00482806
-0.00383545
-0.00232035
-0.000252437
0.00234374
0.00535281
0.00854098
0.0115563
0.0139593
0.015302
0.0152658
0.0137377
0.0104835
0.00550229
-0.00108093
-0.00534572
-0.0076972
-0.00881945
-0.00935002
-0.00940513
-0.00899104
-0.00806204
-0.00653219
-0.00431876
-0.00139359
0.00216807
0.00613857
0.0101192
0.0135543
0.015815
0.0163797
0.0149621
0.0111385
0.00487188
-0.00567004
-0.010389
-0.0129645
-0.0142002
-0.0148394
-0.0150213
-0.0147428
-0.0139251
-0.0124275
-0.0100955
-0.00682079
-0.0026109
0.0023491
0.00763325
0.012562
0.0162764
0.0179606
0.0170354
0.0127468
0.00495481
-0.0120954
-0.0172404
-0.0199965
-0.0213025
-0.0220263
-0.022342
-0.0222398
-0.0216036
-0.0202259
-0.0178592
-0.0142834
-0.00938835
-0.00327095
0.00366293
0.0106288
0.0165009
0.0200619
0.020265
0.0157876
0.00624236
-0.0205762
-0.0261322
-0.028989
-0.030262
-0.0309886
-0.0314012
-0.0314923
-0.0311069
-0.0299599
-0.0276893
-0.0239273
-0.0183954
-0.0110317
-0.00214477
0.0074367
0.0163224
0.0227942
0.0251111
0.0210147
0.00958273
-0.031359
-0.0373278
-0.0401219
-0.0411336
-0.0416625
-0.0420388
-0.0422704
-0.0421626
-0.0413428
-0.0393147
-0.03553
-0.0294898
-0.0208954
-0.00985225
0.00288135
0.0157255
0.0264179
0.0322756
0.0295922
0.0163961
-0.0448052
-0.0511832
-0.0535677
-0.0538553
-0.0537794
-0.0538222
-0.0540152
-0.0541175
-0.0536539
-0.0519749
-0.0483256
-0.0419439
-0.0322256
-0.0189552
-0.00265631
0.0150779
0.0315193
0.0428503
0.0432993
0.0290323
-0.061614
-0.068272
-0.0695062
-0.0682003
-0.0667989
-0.0659809
-0.0657848
-0.065893
-0.0656981
-0.0643727
-0.0609348
-0.0543347
-0.0436178
-0.0281483
-0.0080298
0.0154105
0.0392507
0.0585311
0.0648407
0.0513845
-0.0833435
-0.0896048
-0.0881092
-0.0836879
-0.0798288
-0.0773661
-0.0762586
-0.076035
-0.0758948
-0.0747915
-0.0714975
-0.0646719
-0.0529814
-0.0353303
-0.0112405
0.0185708
0.0514964
0.0817974
0.0982108
0.0897993
-0.113511
-0.116966
-0.109448
-0.0994358
-0.0915425
-0.0864542
-0.0838286
-0.0828842
-0.0825232
-0.0814132
-0.0780566
-0.0708231
-0.0580106
-0.0380527
-0.00978435
0.0270229
0.0707813
0.115865
0.148827
0.153855
-0.159913
-0.153306
-0.133408
-0.114178
-0.100293
-0.0915525
-0.0868975
-0.0849643
-0.0841863
-0.0828746
-0.0792309
-0.0713374
-0.0571406
-0.0345806
-0.00171598
0.0429518
0.099623
0.164184
0.223525
0.257688
-0.242297
-0.202397
-0.158432
-0.125564
-0.103799
-0.0907625
-0.0840668
-0.081334
-0.0803239
-0.0789303
-0.0750671
-0.0665634
-0.0510192
-0.0258793
0.0117692
0.0651629
0.137238
0.227511
0.330992
0.431181
-0.418471
-0.264141
-0.171198
-0.12213
-0.0939723
-0.0786994
-0.072015
-0.0702348
-0.0703975
-0.070096
-0.0671194
-0.0592015
-0.0437359
-0.0178474
0.0223688
0.0823445
0.169641
0.293534
0.474995
0.740716
-0.763663
-0.323833
-0.142215
-0.0838461
-0.0592014
-0.0487898
-0.0472059
-0.0501191
-0.0543119
-0.0574756
-0.0575971
-0.0526111
-0.0403245
-0.0175712
0.0195604
0.077691
0.169909
0.324826
0.623254
1.18213
)
;

boundaryField
{
    movingWall
    {
        type            zeroGradient;
    }
    fixedWalls
    {
        type            zeroGradient;
    }
    frontAndBack
    {
        type            empty;
    }
}


// ************************************************************************* //
