/*--------------------------------*- C++ -*----------------------------------*\
| =========                 |                                                 |
| \\      /  F ield         | OpenFOAM: The Open Source CFD Toolbox           |
|  \\    /   O peration     | Version:  5.0                                   |
|   \\  /    A nd           | Web:      www.OpenFOAM.org                      |
|    \\/     M anipulation  |                                                 |
\*---------------------------------------------------------------------------*/
FoamFile
{
    version     2.0;
    format      ascii;
    class       surfaceScalarField;
    location    "0.3";
    object      phi;
}
// * * * * * * * * * * * * * * * * * * * * * * * * * * * * * * * * * * * * * //

dimensions      [0 3 -1 0 0 0 0];

internalField   nonuniform List<scalar> 
760
(
1.09492e-08
-1.09487e-08
-2.57428e-08
3.6692e-08
-1.11119e-07
8.53755e-08
-2.29218e-07
1.18098e-07
-3.63266e-07
1.34047e-07
-4.9859e-07
1.35324e-07
-6.22746e-07
1.24155e-07
-7.25051e-07
1.02306e-07
-7.96245e-07
7.11943e-08
-8.2865e-07
3.24051e-08
-8.16931e-07
-1.17187e-08
-7.59316e-07
-5.76148e-08
-6.58914e-07
-1.00402e-07
-5.24723e-07
-1.34191e-07
-3.71811e-07
-1.52912e-07
-2.20238e-07
-1.51573e-07
-9.24446e-08
-1.27794e-07
-9.07949e-09
-8.33652e-08
1.78748e-08
-2.69543e-08
1.78746e-08
-3.61493e-08
2.5201e-08
-1.76155e-07
1.76698e-07
-4.103e-07
3.19522e-07
-7.09288e-07
4.17086e-07
-1.03965e-06
4.64406e-07
-1.36922e-06
4.64898e-07
-1.66898e-06
4.23919e-07
-1.91342e-06
3.46737e-07
-2.08072e-06
2.38498e-07
-2.15368e-06
1.05363e-07
-2.12136e-06
-4.40348e-08
-1.98138e-06
-1.97593e-07
-1.74229e-06
-3.39497e-07
-1.42505e-06
-4.51428e-07
-1.06291e-06
-5.15045e-07
-6.98668e-07
-5.15819e-07
-3.78791e-07
-4.4767e-07
-1.44673e-07
-3.17484e-07
-2.15734e-08
-1.50054e-07
-3.69898e-09
-9.14143e-08
1.16615e-07
-3.421e-07
4.27382e-07
-7.17485e-07
6.94906e-07
-1.17431e-06
8.73915e-07
-1.66711e-06
9.57201e-07
-2.15232e-06
9.50109e-07
-2.59015e-06
8.61748e-07
-2.94527e-06
7.01863e-07
-3.18755e-06
4.80772e-07
-3.29337e-06
2.11181e-07
-3.24791e-06
-8.94869e-08
-3.04805e-06
-3.97456e-07
-2.70521e-06
-6.82339e-07
-2.24734e-06
-9.09294e-07
-1.71883e-06
-1.04356e-06
-1.17718e-06
-1.05747e-06
-6.85867e-07
-9.38988e-07
-3.0352e-07
-6.9983e-07
-7.1038e-08
-3.82537e-07
-7.47369e-08
-1.42133e-07
2.58748e-07
-4.99752e-07
7.85e-07
-1.01025e-06
1.20541e-06
-1.61342e-06
1.47709e-06
-2.25237e-06
1.59615e-06
-2.87482e-06
1.57256e-06
-3.4336e-06
1.42053e-06
-3.88687e-06
1.15513e-06
-4.19864e-06
7.92551e-07
-4.34033e-06
3.52864e-07
-4.29316e-06
-1.36656e-07
-4.05157e-06
-6.39049e-07
-3.62673e-06
-1.10717e-06
-3.04946e-06
-1.48656e-06
-2.37108e-06
-1.72194e-06
-1.66082e-06
-1.76773e-06
-9.98609e-07
-1.6012e-06
-4.63249e-07
-1.23519e-06
-1.18228e-07
-7.27557e-07
-1.92965e-07
-1.88046e-07
4.46795e-07
-6.46596e-07
1.24355e-06
-1.2857e-06
1.84451e-06
-2.02731e-06
2.2187e-06
-2.8033e-06
2.37215e-06
-3.55412e-06
2.32337e-06
-4.22734e-06
2.09375e-06
-4.77667e-06
1.70446e-06
-5.16182e-06
1.1777e-06
-5.34959e-06
5.40626e-07
-5.31631e-06
-1.69929e-07
-5.0516e-06
-9.03762e-07
-4.56285e-06
-1.59593e-06
-3.87973e-06
-2.16968e-06
-3.05721e-06
-2.54447e-06
-2.17497e-06
-2.64996e-06
-1.3313e-06
-2.44487e-06
-6.30379e-07
-1.93611e-06
-1.65041e-07
-1.19289e-06
-3.58006e-07
-2.30355e-07
6.77149e-07
-7.83831e-07
1.79703e-06
-1.54482e-06
2.6055e-06
-2.41783e-06
3.0917e-06
-3.32411e-06
3.27843e-06
-4.19804e-06
3.19731e-06
-4.98366e-06
2.87937e-06
-5.63191e-06
2.3527e-06
-6.09927e-06
1.64506e-06
-6.34808e-06
7.89432e-07
-6.34857e-06
-1.69437e-07
-6.08283e-06
-1.1695e-06
-5.55052e-06
-2.12824e-06
-4.77561e-06
-2.94459e-06
-3.8127e-06
-3.50737e-06
-2.75027e-06
-3.7124e-06
-1.70707e-06
-3.48806e-06
-8.19021e-07
-2.82416e-06
-2.16933e-07
-1.79498e-06
-5.7494e-07
-2.69909e-07
9.47057e-07
-9.12488e-07
2.43961e-06
-1.78788e-06
3.48089e-06
-2.78395e-06
4.08777e-06
-3.81235e-06
4.30682e-06
-4.80295e-06
4.18792e-06
-5.69808e-06
3.7745e-06
-6.44776e-06
3.10238e-06
-7.00668e-06
2.20399e-06
-7.33321e-06
1.11597e-06
-7.3907e-06
-1.11954e-07
-7.1512e-06
-1.409e-06
-6.60243e-06
-2.67701e-06
-5.75701e-06
-3.79001e-06
-4.66334e-06
-4.60104e-06
-3.41464e-06
-4.9611e-06
-2.1506e-06
-4.7521e-06
-1.04557e-06
-3.92919e-06
-2.80148e-07
-2.56041e-06
-8.55088e-07
-3.07065e-07
1.25412e-06
-1.03261e-06
3.16515e-06
-2.01307e-06
4.46135e-06
-3.12032e-06
5.19502e-06
-4.25776e-06
5.44427e-06
-5.35272e-06
5.28288e-06
-6.34823e-06
4.77001e-06
-7.19592e-06
3.95007e-06
-7.85099e-06
2.85905e-06
-8.26939e-06
1.53437e-06
-8.4079e-06
2.65522e-08
-8.22704e-06
-1.58986e-06
-7.69856e-06
-3.20548e-06
-6.81711e-06
-4.67147e-06
-5.61632e-06
-5.80182e-06
-4.18605e-06
-6.39138e-06
-2.68338e-06
-6.25477e-06
-1.32652e-06
-5.28605e-06
-3.61278e-07
-3.52565e-06
-1.21637e-06
-3.41995e-07
1.59612e-06
-1.14377e-06
3.96693e-06
-2.21705e-06
5.53463e-06
-3.41782e-06
6.39579e-06
-4.64271e-06
6.66916e-06
-5.81912e-06
6.45929e-06
-6.89401e-06
5.84489e-06
-7.82418e-06
4.88024e-06
-8.56885e-06
3.60373e-06
-9.08484e-06
2.05036e-06
-9.32441e-06
2.66116e-07
-9.23715e-06
-1.67712e-06
-8.77601e-06
-3.66662e-06
-7.91081e-06
-5.53667e-06
-6.64914e-06
-7.06349e-06
-5.06381e-06
-7.9767e-06
-3.31876e-06
-7.99982e-06
-1.67689e-06
-6.92792e-06
-4.6735e-07
-4.73519e-06
-1.68372e-06
-3.75482e-07
1.9716e-06
-1.24673e-06
4.83818e-06
-2.39715e-06
6.68504e-06
-3.6658e-06
7.66443e-06
-4.94437e-06
7.94773e-06
-6.1638e-06
7.67872e-06
-7.27931e-06
6.9604e-06
-8.25761e-06
5.85855e-06
-9.06701e-06
4.41313e-06
-9.67025e-06
2.6536e-06
-1.00201e-05
6.15931e-07
-1.00581e-05
-1.63908e-06
-9.71885e-06
-4.00587e-06
-8.94187e-06
-6.31365e-06
-7.69596e-06
-8.3094e-06
-6.01713e-06
-9.65554e-06
-4.05517e-06
-9.96178e-06
-2.10836e-06
-8.87473e-06
-6.0616e-07
-6.23739e-06
-2.28988e-06
-4.1031e-07
2.38191e-06
-1.34639e-06
5.77425e-06
-2.55481e-06
7.89346e-06
-3.85548e-06
8.96511e-06
-5.13788e-06
9.23013e-06
-6.34146e-06
8.8823e-06
-7.43541e-06
8.05435e-06
-8.40233e-06
6.82546e-06
-9.22598e-06
5.23678e-06
-9.88205e-06
3.30968e-06
-1.03311e-05
1.065e-06
-1.0514e-05
-1.45619e-06
-1.03514e-05
-4.16853e-06
-9.75135e-06
-6.91365e-06
-8.63271e-06
-9.42804e-06
-6.97034e-06
-1.13179e-05
-4.86598e-06
-1.20661e-05
-2.62582e-06
-1.11149e-05
-7.86737e-07
-8.07647e-06
-3.07661e-06
-4.53539e-07
2.83545e-06
-1.45577e-06
6.77648e-06
-2.69974e-06
9.13744e-06
-3.9833e-06
1.02487e-05
-5.199e-06
1.04458e-05
-6.30248e-06
9.98578e-06
-7.28446e-06
9.03632e-06
-8.15048e-06
7.69149e-06
-8.9069e-06
5.99319e-06
-9.55031e-06
3.95309e-06
-1.00586e-05
1.57324e-06
-1.03824e-05
-1.13235e-06
-1.04391e-05
-4.11185e-06
-1.01116e-05
-7.24111e-06
-9.26385e-06
-1.02758e-05
-7.7857e-06
-1.27961e-05
-5.68476e-06
-1.41671e-05
-3.22101e-06
-1.35786e-05
-1.01974e-06
-1.02777e-05
-4.09636e-06
-5.20221e-07
3.35567e-06
-1.60118e-06
7.85745e-06
-2.85303e-06
1.03893e-05
-4.05098e-06
1.14466e-05
-5.10206e-06
1.14969e-05
-5.99057e-06
1.08743e-05
-6.73878e-06
9.78453e-06
-7.38287e-06
8.33558e-06
-7.95842e-06
6.56874e-06
-8.49019e-06
4.48486e-06
-8.98284e-06
2.06588e-06
-9.40986e-06
-7.05328e-07
-9.7013e-06
-3.8204e-06
-9.73098e-06
-7.21143e-06
-9.31574e-06
-1.0691e-05
-8.24635e-06
-1.38655e-05
-6.38537e-06
-1.60281e-05
-3.8609e-06
-1.61031e-05
-1.31725e-06
-1.28214e-05
-5.4136e-06
-6.39409e-07
3.99508e-06
-1.82673e-06
9.04477e-06
-3.04399e-06
1.16065e-05
-4.05447e-06
1.24571e-05
-4.80411e-06
1.22465e-05
-5.32592e-06
1.13961e-05
-5.6865e-06
1.01451e-05
-5.95988e-06
8.60897e-06
-6.21509e-06
6.82394e-06
-6.509e-06
4.77877e-06
-6.87946e-06
2.43634e-06
-7.33415e-06
-2.50639e-07
-7.83483e-06
-3.31972e-06
-8.27185e-06
-6.7744e-06
-8.44126e-06
-1.05216e-05
-8.04325e-06
-1.42635e-05
-6.75659e-06
-1.73147e-05
-4.46676e-06
-1.83929e-05
-1.68954e-06
-1.55986e-05
-7.10314e-06
-8.62518e-07
4.8576e-06
-2.19156e-06
1.03738e-05
-3.28636e-06
1.27013e-05
-3.94339e-06
1.31141e-05
-4.19605e-06
1.24992e-05
-4.15568e-06
1.13557e-05
-3.94707e-06
9.9365e-06
-3.68594e-06
8.34784e-06
-3.47344e-06
6.61144e-06
-3.39574e-06
4.70107e-06
-3.52293e-06
2.56353e-06
-3.90238e-06
1.28811e-07
-4.5421e-06
-2.68e-06
-5.38035e-06
-5.93616e-06
-6.23783e-06
-9.66414e-06
-6.76891e-06
-1.37324e-05
-6.4697e-06
-1.76139e-05
-4.87486e-06
-1.99878e-05
-2.13068e-06
-1.83428e-05
-9.23383e-06
-1.26664e-06
6.12424e-06
-2.73287e-06
1.18401e-05
-3.49335e-06
1.34618e-05
-3.50862e-06
1.31294e-05
-2.98392e-06
1.19745e-05
-2.14288e-06
1.05147e-05
-1.175e-06
8.96861e-06
-2.3101e-07
7.40385e-06
5.68151e-07
5.81228e-06
1.12011e-06
4.14911e-06
1.33419e-06
2.34945e-06
1.13013e-06
3.32874e-07
4.49601e-07
-1.99947e-06
-7.18171e-07
-4.76839e-06
-2.27535e-06
-8.10696e-06
-3.91768e-06
-1.20901e-05
-5.0346e-06
-1.6497e-05
-4.76272e-06
-2.02596e-05
-2.57195e-06
-2.05336e-05
-1.18058e-05
-1.92e-06
8.04424e-06
-3.30143e-06
1.32215e-05
-3.22518e-06
1.33856e-05
-2.11204e-06
1.20162e-05
-4.44025e-07
1.03065e-05
1.43608e-06
8.6346e-06
3.29912e-06
7.10557e-06
4.99108e-06
5.71189e-06
6.40065e-06
4.40271e-06
7.43585e-06
3.11392e-06
8.00863e-06
1.77666e-06
8.0261e-06
3.15406e-07
7.3925e-06
-1.36587e-06
6.01973e-06
-3.39562e-06
3.87796e-06
-5.96519e-06
1.11373e-06
-9.32582e-06
-1.73498e-06
-1.36483e-05
-3.52748e-06
-1.84671e-05
-2.78476e-06
-2.12763e-05
-1.45905e-05
-2.6961e-06
1.07403e-05
-2.98561e-06
1.3511e-05
-1.02999e-06
1.14299e-05
1.87137e-06
9.11489e-06
4.98418e-06
7.19368e-06
7.96177e-06
5.65701e-06
1.06353e-05
4.43206e-06
1.29182e-05
3.42899e-06
1.47578e-05
2.56309e-06
1.61075e-05
1.76425e-06
1.69104e-05
9.73684e-07
1.70883e-05
1.37547e-07
1.65382e-05
-8.15747e-07
1.51175e-05
-1.97495e-06
1.26621e-05
-3.50977e-06
9.05871e-06
-5.72244e-06
4.49816e-06
-9.08776e-06
6.75111e-09
-1.39757e-05
-2.15424e-06
-1.91153e-05
-1.67448e-05
-1.75676e-06
1.24971e-05
1.80164e-06
9.9526e-06
6.98501e-06
6.24657e-06
1.1862e-05
4.23794e-06
1.60546e-05
3.00108e-06
1.9552e-05
2.15954e-06
2.24116e-05
1.57245e-06
2.46955e-05
1.14514e-06
2.64489e-05
8.09724e-07
2.76917e-05
5.21457e-07
2.84153e-05
2.50087e-07
2.85766e-05
-2.3806e-08
2.81011e-05
-3.40192e-07
2.68431e-05
-7.16999e-07
2.45703e-05
-1.23699e-06
2.09179e-05
-2.07001e-06
1.5466e-05
-3.63583e-06
8.2846e-06
-6.79438e-06
1.50475e-06
-1.23355e-05
-1.524e-05
1.24971e-05
2.24497e-05
2.86963e-05
3.29342e-05
3.59353e-05
3.80948e-05
3.96673e-05
4.08124e-05
4.16221e-05
4.21436e-05
4.23937e-05
4.23699e-05
4.20297e-05
4.13127e-05
4.00757e-05
3.80057e-05
3.43699e-05
2.75755e-05
1.524e-05
)
;

boundaryField
{
    movingWall
    {
        type            calculated;
        value           uniform 0;
    }
    fixedWalls
    {
        type            calculated;
        value           uniform 0;
    }
    frontAndBack
    {
        type            empty;
        value           nonuniform 0();
    }
}


// ************************************************************************* //
