/*--------------------------------*- C++ -*----------------------------------*\
| =========                 |                                                 |
| \\      /  F ield         | OpenFOAM: The Open Source CFD Toolbox           |
|  \\    /   O peration     | Version:  5.0                                   |
|   \\  /    A nd           | Web:      www.OpenFOAM.org                      |
|    \\/     M anipulation  |                                                 |
\*---------------------------------------------------------------------------*/
FoamFile
{
    version     2.0;
    format      ascii;
    class       volVectorField;
    location    "0.3";
    object      U;
}
// * * * * * * * * * * * * * * * * * * * * * * * * * * * * * * * * * * * * * //

dimensions      [0 1 -1 0 0 0 0];

internalField   nonuniform List<vector> 
400
(
(0.000215653 -0.000215215 0)
(5.69707e-05 0.000126353 0)
(-0.00120479 0.000521507 0)
(-0.00330537 0.000786107 0)
(-0.00589123 0.000916347 0)
(-0.00864315 0.000936129 0)
(-0.0112889 0.000866895 0)
(-0.0135974 0.000722976 0)
(-0.0153688 0.000513389 0)
(-0.0164316 0.000246998 0)
(-0.0166518 -6.17324e-05 0)
(-0.0159535 -0.000388487 0)
(-0.0143461 -0.000697175 0)
(-0.0119489 -0.000942324 0)
(-0.00900512 -0.0010753 0)
(-0.00587412 -0.00105429 0)
(-0.00299447 -0.000856794 0)
(-0.000812259 -0.000493456 0)
(0.000308526 -3.68524e-05 0)
(0.000283027 0.000272295 0)
(-0.000113708 -7.59564e-05 0)
(-0.00163666 0.00162212 0)
(-0.00547296 0.00334847 0)
(-0.0109717 0.00453603 0)
(-0.0174234 0.00512323 0)
(-0.024168 0.00516532 0)
(-0.0305918 0.0047348 0)
(-0.0361465 0.00389543 0)
(-0.040356 0.00270335 0)
(-0.0428243 0.00122335 0)
(-0.0432607 -0.000451228 0)
(-0.0415218 -0.0021838 0)
(-0.0376608 -0.00379125 0)
(-0.03197 -0.00505671 0)
(-0.0249983 -0.00575995 0)
(-0.0175258 -0.00572368 0)
(-0.0104756 -0.00487006 0)
(-0.00476197 -0.00327835 0)
(-0.00113391 -0.00126691 0)
(3.96271e-05 0.000343778 0)
(-0.000547682 0.00120043 0)
(-0.00362651 0.0055217 0)
(-0.0100509 0.00945194 0)
(-0.0186306 0.0121342 0)
(-0.0283511 0.0134238 0)
(-0.0383353 0.0133979 0)
(-0.0477505 0.0121947 0)
(-0.0558404 0.00995868 0)
(-0.0619449 0.00683817 0)
(-0.0655179 0.00301389 0)
(-0.0661635 -0.00126411 0)
(-0.0636888 -0.00564959 0)
(-0.0581657 -0.00969785 0)
(-0.0499837 -0.012897 0)
(-0.0398738 -0.014738 0)
(-0.02888 -0.0148202 0)
(-0.0182473 -0.0129791 0)
(-0.00923035 -0.00940925 0)
(-0.00296224 -0.00478766 0)
(-0.000324473 -0.000572025 0)
(-0.000935567 0.00355298 0)
(-0.00550005 0.0116446 0)
(-0.0144315 0.0183763 0)
(-0.0259164 0.0228268 0)
(-0.0386164 0.0248533 0)
(-0.0514764 0.0245913 0)
(-0.0635105 0.0222647 0)
(-0.0738238 0.018117 0)
(-0.0816323 0.0124107 0)
(-0.0862812 0.00547185 0)
(-0.0872833 -0.0022553 0)
(-0.0843796 -0.0101675 0)
(-0.0776115 -0.017499 0)
(-0.06739 -0.0233713 0)
(-0.0545401 -0.0269063 0)
(-0.0402914 -0.0273992 0)
(-0.0261692 -0.0245324 0)
(-0.0137876 -0.0185759 0)
(-0.00476639 -0.0105475 0)
(-0.000651222 -0.00246568 0)
(-0.00127552 0.00686919 0)
(-0.00722151 0.0198356 0)
(-0.0185403 0.0299088 0)
(-0.0327866 0.0363166 0)
(-0.0482907 0.0390472 0)
(-0.0638366 0.0383637 0)
(-0.0783243 0.0346106 0)
(-0.0907653 0.028146 0)
(-0.10029 0.0193543 0)
(-0.106157 0.00871101 0)
(-0.107781 -0.00313898 0)
(-0.104805 -0.0153212 0)
(-0.0971779 -0.026719 0)
(-0.0852524 -0.0360329 0)
(-0.0698687 -0.0419303 0)
(-0.0523898 -0.0432909 0)
(-0.0346237 -0.0395204 0)
(-0.018616 -0.0308578 0)
(-0.00660925 -0.0185929 0)
(-0.000953081 -0.00528101 0)
(-0.00158292 0.0110655 0)
(-0.00881754 0.0299825 0)
(-0.0223951 0.0439427 0)
(-0.0392625 0.0524981 0)
(-0.0574274 0.0559033 0)
(-0.0755312 0.0546362 0)
(-0.0923905 0.0492075 0)
(-0.10696 0.0401063 0)
(-0.118314 0.0278348 0)
(-0.125638 0.0130024 0)
(-0.128243 -0.00356491 0)
(-0.12563 -0.0207343 0)
(-0.117589 -0.037029 0)
(-0.104325 -0.0506798 0)
(-0.0866013 -0.0597972 0)
(-0.0658495 -0.0626857 0)
(-0.0441574 -0.0582825 0)
(-0.0240877 -0.0466193 0)
(-0.00867727 -0.0291644 0)
(-0.00127863 -0.00906222 0)
(-0.00186874 0.0160794 0)
(-0.0103114 0.0419714 0)
(-0.0260114 0.0603471 0)
(-0.0453367 0.0712369 0)
(-0.0659912 0.0752994 0)
(-0.0864982 0.0733238 0)
(-0.105626 0.06604 0)
(-0.122311 0.0540831 0)
(-0.135609 0.03806 0)
(-0.144651 0.0186789 0)
(-0.148642 -0.00309923 0)
(-0.146913 -0.025926 0)
(-0.139025 -0.0479838 0)
(-0.124935 -0.0670023 0)
(-0.105206 -0.0804243 0)
(-0.0812286 -0.0857753 0)
(-0.0553218 -0.0812476 0)
(-0.030629 -0.0663906 0)
(-0.0111936 -0.0426934 0)
(-0.00168404 -0.0139712 0)
(-0.00213865 0.02186 0)
(-0.0117128 0.0556844 0)
(-0.0293793 0.0789577 0)
(-0.0509449 0.0923393 0)
(-0.0738315 0.097037 0)
(-0.0964768 0.0942575 0)
(-0.117646 0.0850096 0)
(-0.13631 0.0700911 0)
(-0.151553 0.0501918 0)
(-0.162495 0.0260676 0)
(-0.168257 -0.00125798 0)
(-0.167988 -0.0302989 0)
(-0.160969 -0.0589588 0)
(-0.1468 -0.0844725 0)
(-0.125688 -0.103522 0)
(-0.0988022 -0.112621 0)
(-0.0685504 -0.108847 0)
(-0.0386526 -0.0908413 0)
(-0.0143965 -0.0598162 0)
(-0.0022313 -0.0202998 0)
(-0.0023968 0.0283603 0)
(-0.0130272 0.0709928 0)
(-0.0324738 0.0995625 0)
(-0.0559767 0.11552 0)
(-0.0806925 0.120785 0)
(-0.105017 0.117106 0)
(-0.127772 0.10584 0)
(-0.148032 0.0879682 0)
(-0.164983 0.0642393 0)
(-0.177804 0.035394 0)
(-0.185587 0.00242298 0)
(-0.187332 -0.0331687 0)
(-0.182021 -0.0691215 0)
(-0.168807 -0.10225 0)
(-0.147357 -0.12844 0)
(-0.118354 -0.142976 0)
(-0.0840177 -0.141361 0)
(-0.0484976 -0.120697 0)
(-0.0185345 -0.0813592 0)
(-0.00299362 -0.0284773 0)
(-0.00265439 0.0355395 0)
(-0.0142817 0.0877572 0)
(-0.0352957 0.121884 0)
(-0.0603198 0.140355 0)
(-0.0862577 0.146006 0)
(-0.11152 0.141277 0)
(-0.135068 0.12796 0)
(-0.156169 0.107245 0)
(-0.174212 0.0799207 0)
(-0.188536 0.046646 0)
(-0.198308 0.00826799 0)
(-0.202465 -0.033843 0)
(-0.199733 -0.0774454 0)
(-0.188776 -0.119106 0)
(-0.168548 -0.153999 0)
(-0.138911 -0.17604 0)
(-0.101447 -0.178666 0)
(-0.0603473 -0.156564 0)
(-0.0238662 -0.108283 0)
(-0.00406631 -0.0390828 0)
(-0.00294496 0.0433865 0)
(-0.0155711 0.105853 0)
(-0.0379373 0.145574 0)
(-0.0639315 0.16624 0)
(-0.0902151 0.171884 0)
(-0.115302 0.165822 0)
(-0.138404 0.150385 0)
(-0.159101 0.127012 0)
(-0.177105 0.0965156 0)
(-0.192049 0.0594145 0)
(-0.20332 0.0163008 0)
(-0.209944 -0.0317636 0)
(-0.21052 -0.0828003 0)
(-0.203275 -0.133419 0)
(-0.186345 -0.178343 0)
(-0.158428 -0.210176 0)
(-0.119843 -0.219885 0)
(-0.0740926 -0.198644 0)
(-0.0306526 -0.141575 0)
(-0.00558351 -0.0528664 0)
(-0.00335132 0.0519807 0)
(-0.0171272 0.125229 0)
(-0.0406705 0.170219 0)
(-0.066914 0.192345 0)
(-0.092315 0.197238 0)
(-0.115642 0.189335 0)
(-0.136517 0.171615 0)
(-0.154977 0.145803 0)
(-0.171197 0.112731 0)
(-0.18525 0.0727361 0)
(-0.196918 0.0260613 0)
(-0.205517 -0.0267096 0)
(-0.209745 -0.0841385 0)
(-0.207581 -0.143283 0)
(-0.196391 -0.198896 0)
(-0.173458 -0.242654 0)
(-0.137134 -0.262943 0)
(-0.0891024 -0.246292 0)
(-0.039124 -0.182039 0)
(-0.00774202 -0.070784 0)
(-0.00405353 0.0616124 0)
(-0.0194223 0.14601 0)
(-0.0440355 0.195335 0)
(-0.0695456 0.217532 0)
(-0.0923432 0.220427 0)
(-0.111729 0.209856 0)
(-0.127969 0.189545 0)
(-0.14173 0.16152 0)
(-0.153787 0.126624 0)
(-0.164785 0.0849831 0)
(-0.17506 0.0364394 0)
(-0.184442 -0.0190259 0)
(-0.19202 -0.0807729 0)
(-0.195869 -0.146768 0)
(-0.192873 -0.212493 0)
(-0.178906 -0.26951 0)
(-0.149758 -0.3041 0)
(-0.103861 -0.297383 0)
(-0.049383 -0.229915 0)
(-0.010829 -0.0940405 0)
(-0.00541358 0.0730037 0)
(-0.0233072 0.168604 0)
(-0.0488674 0.22029 0)
(-0.0721314 0.240183 0)
(-0.0898357 0.239171 0)
(-0.102317 0.224757 0)
(-0.110819 0.201424 0)
(-0.11683 0.171449 0)
(-0.121823 0.135632 0)
(-0.127086 0.0938756 0)
(-0.133601 0.0456168 0)
(-0.141875 -0.00980079 0)
(-0.151689 -0.072695 0)
(-0.161672 -0.142345 0)
(-0.168789 -0.215773 0)
(-0.167951 -0.285685 0)
(-0.152234 -0.337611 0)
(-0.115417 -0.347515 0)
(-0.0611457 -0.284187 0)
(-0.0152245 -0.124085 0)
(-0.00810432 0.0876765 0)
(-0.0301281 0.193744 0)
(-0.0560404 0.243994 0)
(-0.0743301 0.257825 0)
(-0.0831455 0.250276 0)
(-0.0847093 0.230611 0)
(-0.0816645 0.203877 0)
(-0.0764673 0.172391 0)
(-0.0712958 0.136788 0)
(-0.0680238 0.0967074 0)
(-0.0682235 0.0512267 0)
(-0.0731094 -0.000865738 0)
(-0.083328 -0.0608131 0)
(-0.0985063 -0.129396 0)
(-0.116485 -0.205875 0)
(-0.132216 -0.285623 0)
(-0.136754 -0.355768 0)
(-0.118543 -0.389206 0)
(-0.0730697 -0.341448 0)
(-0.0212506 -0.162426 0)
(-0.0131951 0.108567 0)
(-0.0414848 0.222129 0)
(-0.0652196 0.264023 0)
(-0.0730829 0.266344 0)
(-0.0670482 0.249177 0)
(-0.0524153 0.223089 0)
(-0.033543 0.193083 0)
(-0.0137975 0.16106 0)
(0.0041517 0.127232 0)
(0.0181133 0.090909 0)
(0.026186 0.0508828 0)
(0.0266533 0.00558563 0)
(0.0180654 -0.046876 0)
(-0.000441522 -0.108593 0)
(-0.0283577 -0.1813 0)
(-0.0621628 -0.264356 0)
(-0.0927989 -0.349578 0)
(-0.104435 -0.411382 0)
(-0.0812089 -0.394397 0)
(-0.0284917 -0.210445 0)
(-0.0217126 0.14129 0)
(-0.0573225 0.252648 0)
(-0.0704595 0.273962 0)
(-0.0570981 0.258096 0)
(-0.027447 0.229089 0)
(0.0093591 0.196905 0)
(0.0476607 0.165223 0)
(0.083817 0.134799 0)
(0.115301 0.105082 0)
(0.140165 0.0749777 0)
(0.156671 0.0431085 0)
(0.163034 0.0078365 0)
(0.157367 -0.0329021 0)
(0.137726 -0.0818425 0)
(0.102594 -0.142608 0)
(0.0524606 -0.218876 0)
(-0.00664897 -0.310061 0)
(-0.0587927 -0.399243 0)
(-0.076231 -0.429657 0)
(-0.0338422 -0.269199 0)
(-0.0313022 0.19462 0)
(-0.0677858 0.276178 0)
(-0.047014 0.257316 0)
(0.00581457 0.218987 0)
(0.0683017 0.180652 0)
(0.130322 0.146801 0)
(0.187408 0.117963 0)
(0.237305 0.0931276 0)
(0.278766 0.0708572 0)
(0.310896 0.0497394 0)
(0.332726 0.0284409 0)
(0.342943 0.00559063 0)
(0.339791 -0.0204739 0)
(0.320826 -0.0521553 0)
(0.282863 -0.0934243 0)
(0.222703 -0.150645 0)
(0.139796 -0.231524 0)
(0.0416807 -0.335611 0)
(-0.0382375 -0.422572 0)
(-0.025996 -0.330789 0)
(-0.0112201 0.253405 0)
(-0.0155744 0.25969 0)
(0.0824026 0.190779 0)
(0.189931 0.139415 0)
(0.282047 0.103496 0)
(0.358795 0.077438 0)
(0.422137 0.0582196 0)
(0.473405 0.0435501 0)
(0.513664 0.031637 0)
(0.543601 0.0211746 0)
(0.563358 0.0111892 0)
(0.572438 0.000859694 0)
(0.569728 -0.0106279 0)
(0.553094 -0.0246657 0)
(0.518934 -0.0437248 0)
(0.461519 -0.0730735 0)
(0.372303 -0.123691 0)
(0.239825 -0.211871 0)
(0.0833476 -0.332034 0)
(0.0373327 -0.337963 0)
(0.28036 0.141534 0)
(0.358754 0.123811 0)
(0.506102 0.0783164 0)
(0.61958 0.049295 0)
(0.692924 0.0319621 0)
(0.743137 0.0211124 0)
(0.779574 0.0141547 0)
(0.806314 0.00953968 0)
(0.825607 0.00625652 0)
(0.838777 0.00367272 0)
(0.846452 0.00139096 0)
(0.848748 -0.0008619 0)
(0.845256 -0.00324937 0)
(0.834954 -0.00617545 0)
(0.815899 -0.0102734 0)
(0.78386 -0.0171147 0)
(0.729231 -0.0309804 0)
(0.625507 -0.0621729 0)
(0.448655 -0.123211 0)
(0.324016 -0.155188 0)
)
;

boundaryField
{
    movingWall
    {
        type            fixedValue;
        value           uniform (1 0 0);
    }
    fixedWalls
    {
        type            noSlip;
    }
    frontAndBack
    {
        type            empty;
    }
}


// ************************************************************************* //
