/*--------------------------------*- C++ -*----------------------------------*\
| =========                 |                                                 |
| \\      /  F ield         | OpenFOAM: The Open Source CFD Toolbox           |
|  \\    /   O peration     | Version:  5.0                                   |
|   \\  /    A nd           | Web:      www.OpenFOAM.org                      |
|    \\/     M anipulation  |                                                 |
\*---------------------------------------------------------------------------*/
FoamFile
{
    version     2.0;
    format      ascii;
    class       volScalarField;
    location    "0.1";
    object      p;
}
// * * * * * * * * * * * * * * * * * * * * * * * * * * * * * * * * * * * * * //

dimensions      [0 2 -2 0 0 0 0];

internalField   nonuniform List<scalar> 
400
(
6.79236e-09
-0.000137604
-0.000160865
-5.71797e-05
0.000168921
0.000510594
0.000959196
0.00150401
0.00213157
0.00282483
0.00356265
0.0043198
0.00506667
0.00577047
0.00639638
0.00690947
0.00727795
0.00747781
0.00749718
0.00735471
0.000129921
-1.17818e-05
-2.15856e-05
8.6818e-05
0.000303692
0.000627414
0.00105289
0.00157129
0.00217041
0.00283423
0.00354252
0.0042709
0.0049906
0.00566969
0.00627432
0.00677103
0.00713119
0.00733566
0.00736739
0.00721876
0.000141339
-2.60474e-05
-4.02041e-05
6.69731e-05
0.000279309
0.000596604
0.0010154
0.00152813
0.00212374
0.00278712
0.00349871
0.00423422
0.00496476
0.00565755
0.00627723
0.00678839
0.00716054
0.0073729
0.0074002
0.00721826
1.51664e-05
-0.000178776
-0.000202197
-9.73064e-05
0.000115011
0.00043488
0.000859837
0.00138342
0.00199565
0.00268227
0.00342412
0.00419696
0.00497051
0.00570979
0.00637596
0.00692885
0.00733281
0.00756214
0.00758417
0.0073664
-0.000255344
-0.000473121
-0.000505242
-0.000400739
-0.00018375
0.000146345
0.000588182
0.00113655
0.0017827
0.00251335
0.00330959
0.0041475
0.0049944
0.00581206
0.00655622
0.00717932
0.00763742
0.00789739
0.00791921
0.00766572
-0.000679154
-0.000922501
-0.00096312
-0.000856625
-0.000630303
-0.000282802
0.000185918
0.000772232
0.00146902
0.0022643
0.00313956
0.00407188
0.00502537
0.00595776
0.00681742
0.00754614
0.00808745
0.00839676
0.00842397
0.00812747
-0.00126833
-0.0015423
-0.00159216
-0.00148175
-0.00124228
-0.000871453
-0.000367384
0.000268412
0.00103109
0.00191101
0.00289227
0.00394755
0.0050441
0.00613376
0.00715527
0.0080357
0.00870001
0.00908528
0.00912509
0.00877094
-0.0020399
-0.00235165
-0.00241237
-0.00229695
-0.0020419
-0.00164377
-0.0010983
-0.00040417
0.000436901
0.00141841
0.00252695
0.00373887
0.00501933
0.00631624
0.00755763
0.00865127
0.00949493
0.00999595
0.0100595
0.00962427
-0.00301707
-0.00337571
-0.00344968
-0.00332902
-0.00305759
-0.00263062
-0.00204078
-0.00128304
-0.00035489
0.000741869
0.00199868
0.00339677
0.00490348
0.00646479
0.00799831
0.00938804
0.010493
0.0111721
0.0112792
0.0107262
-0.00423049
-0.0046473
-0.0047373
-0.00461165
-0.00432462
-0.00386998
-0.00323651
-0.00241454
-0.0013961
-0.000176616
0.00124276
0.00285147
0.00462458
0.00651176
0.00842444
0.0102212
0.0117086
0.0126685
0.0128593
0.0121312
-0.00572051
-0.00620934
-0.00631744
-0.00618641
-0.00588553
-0.00540701
-0.00473467
-0.00385331
-0.00274859
-0.00140819
0.000176699
0.00200813
0.00407687
0.0063468
0.00873533
0.0110827
0.0131326
0.0145479
0.0149103
0.0139241
-0.00754177
-0.00811899
-0.00824393
-0.00810388
-0.0077904
-0.00729348
-0.00659062
-0.00566032
-0.00448173
-0.00303454
-0.00129866
0.000744626
0.00311154
0.00579647
0.00874791
0.0118157
0.0146891
0.0168617
0.0175916
0.01626
-0.00977249
-0.0104551
-0.010586
-0.010425
-0.0100967
-0.00958659
-0.00886335
-0.00789866
-0.00666639
-0.00514051
-0.00329135
-0.00108147
0.00153346
0.00460262
0.00814457
0.0120882
0.0161393
0.0195973
0.0211452
0.0195074
-0.0125337
-0.0133314
-0.0134338
-0.013222
-0.0128682
-0.0123464
-0.0116108
-0.0106258
-0.00936335
-0.00779797
-0.00589871
-0.00361802
-0.00088128
0.00242006
0.0064172
0.0112486
0.0168653
0.022512
0.0259385
0.0246179
-0.016031
-0.0169212
-0.0169031
-0.0165755
-0.0161709
-0.0156294
-0.0148801
-0.0138791
-0.0126015
-0.0110335
-0.00915941
-0.00694398
-0.00430553
-0.00109328
0.00289388
0.00818355
0.0154246
0.0244068
0.0318528
0.0331353
-0.0206536
-0.0214998
-0.0211275
-0.0205561
-0.0200535
-0.0194679
-0.0186823
-0.0176421
-0.0163335
-0.0147687
-0.0129709
-0.0109552
-0.00868516
-0.00598395
-0.00289561
0.00164021
0.00942123
0.0220559
0.0364875
0.0454961
-0.0272622
-0.0275031
-0.0261897
-0.0251533
-0.0244795
-0.0237935
-0.0229031
-0.021745
-0.0203277
-0.0187047
-0.0169584
-0.0151901
-0.0135179
-0.0120525
-0.0102842
-0.00786284
-0.00159559
0.0136521
0.0379094
0.0634037
-0.0380153
-0.0354559
-0.0319061
-0.0300612
-0.0290409
-0.0281051
-0.0269684
-0.0255602
-0.0239171
-0.0221319
-0.0203372
-0.0187028
-0.0174413
-0.016742
-0.0165037
-0.0154671
-0.0104371
0.00915228
0.0487427
0.10711
-0.0577475
-0.0449031
-0.036658
-0.0330748
-0.0313645
-0.0301073
-0.028787
-0.0272597
-0.0255346
-0.023707
-0.0219317
-0.0203932
-0.0193034
-0.0187239
-0.0182516
-0.0154817
-0.00408256
0.0298568
0.100289
0.216731
-0.121458
-0.0488098
-0.0273586
-0.024966
-0.0250307
-0.0248219
-0.0244396
-0.0238423
-0.0229377
-0.0217849
-0.0205693
-0.0194855
-0.0187099
-0.0179863
-0.0162622
-0.0094303
0.0118122
0.0696615
0.188169
0.378503
)
;

boundaryField
{
    movingWall
    {
        type            zeroGradient;
    }
    fixedWalls
    {
        type            zeroGradient;
    }
    frontAndBack
    {
        type            empty;
    }
}


// ************************************************************************* //
