/*--------------------------------*- C++ -*----------------------------------*\
| =========                 |                                                 |
| \\      /  F ield         | OpenFOAM: The Open Source CFD Toolbox           |
|  \\    /   O peration     | Version:  5.0                                   |
|   \\  /    A nd           | Web:      www.OpenFOAM.org                      |
|    \\/     M anipulation  |                                                 |
\*---------------------------------------------------------------------------*/
FoamFile
{
    version     2.0;
    format      ascii;
    class       surfaceScalarField;
    location    "0.1";
    object      phi;
}
// * * * * * * * * * * * * * * * * * * * * * * * * * * * * * * * * * * * * * //

dimensions      [0 3 -1 0 0 0 0];

internalField   nonuniform List<scalar> 
760
(
-1.59615e-08
1.59611e-08
-6.88513e-08
5.28898e-08
-1.37477e-07
6.86256e-08
-2.07749e-07
7.02722e-08
-2.73747e-07
6.59982e-08
-3.32746e-07
5.89991e-08
-3.82954e-07
5.02081e-08
-4.22833e-07
3.98792e-08
-4.50951e-07
2.81176e-08
-4.65995e-07
1.50446e-08
-4.66824e-07
8.28206e-10
-4.52605e-07
-1.42184e-08
-4.22878e-07
-2.9727e-08
-3.77746e-07
-4.51329e-08
-3.18057e-07
-5.96883e-08
-2.45782e-07
-7.22756e-08
-1.64896e-07
-8.08859e-08
-8.37987e-08
-8.1097e-08
-2.02249e-08
-6.35738e-08
-2.02248e-08
-5.46213e-08
7.05824e-08
-1.70303e-07
1.68572e-07
-3.09608e-07
2.07931e-07
-4.51009e-07
2.11672e-07
-5.83571e-07
1.98561e-07
-7.01447e-07
1.76875e-07
-8.0075e-07
1.49511e-07
-8.78364e-07
1.17493e-07
-9.31605e-07
8.13584e-08
-9.58176e-07
4.16158e-08
-9.56286e-07
-1.06171e-09
-9.24642e-07
-4.58625e-08
-8.6284e-07
-9.15291e-08
-7.71492e-07
-1.36481e-07
-6.52645e-07
-1.78536e-07
-5.10461e-07
-2.14459e-07
-3.52748e-07
-2.38599e-07
-1.94273e-07
-2.39572e-07
-6.21215e-08
-1.95725e-07
-8.23462e-08
-7.50304e-08
1.45613e-07
-2.23953e-07
3.17494e-07
-3.99131e-07
3.8311e-07
-5.75285e-07
3.87826e-07
-7.39744e-07
3.6302e-07
-8.85548e-07
3.22679e-07
-1.00799e-06
2.71958e-07
-1.10334e-06
2.12834e-07
-1.16839e-06
1.46416e-07
-1.20049e-06
7.37142e-08
-1.19751e-06
-4.04864e-09
-1.15798e-06
-8.53912e-08
-1.08138e-06
-1.68125e-07
-9.68419e-07
-2.49442e-07
-8.21503e-07
-3.25452e-07
-6.45594e-07
-3.90367e-07
-4.49969e-07
-4.34225e-07
-2.51952e-07
-4.37589e-07
-8.35815e-08
-3.64095e-07
-1.65928e-07
-8.51806e-08
2.30794e-07
-2.53795e-07
4.86109e-07
-4.50787e-07
5.80102e-07
-6.47852e-07
5.84891e-07
-8.31348e-07
5.46516e-07
-9.93922e-07
4.85253e-07
-1.13061e-06
4.08643e-07
-1.23743e-06
3.19655e-07
-1.31097e-06
2.19961e-07
-1.3483e-06
1.11041e-07
-1.34697e-06
-5.3738e-09
-1.3051e-06
-1.27262e-07
-1.22174e-06
-2.51493e-07
-1.09715e-06
-3.74025e-07
-9.33504e-07
-4.89101e-07
-7.35872e-07
-5.87999e-07
-5.14377e-07
-6.5572e-07
-2.88554e-07
-6.63411e-07
-9.54782e-08
-5.57171e-07
-2.61406e-07
-9.31568e-08
3.23951e-07
-2.78472e-07
6.71424e-07
-4.9462e-07
7.9625e-07
-7.10342e-07
8.00613e-07
-9.11027e-07
7.47202e-07
-1.08905e-06
6.63273e-07
-1.23934e-06
5.58931e-07
-1.35782e-06
4.38141e-07
-1.44093e-06
3.0307e-07
-1.48543e-06
1.55539e-07
-1.48848e-06
-2.32847e-09
-1.4474e-06
-1.68339e-07
-1.36045e-06
-3.38437e-07
-1.22699e-06
-5.07493e-07
-1.04835e-06
-6.67738e-07
-8.29364e-07
-8.06985e-07
-5.81023e-07
-9.04061e-07
-3.2581e-07
-9.18624e-07
-1.07133e-07
-7.75849e-07
-3.68539e-07
-1.02465e-07
4.26415e-07
-3.06818e-07
8.75778e-07
-5.44879e-07
1.03431e-06
-7.82076e-07
1.03781e-06
-1.00267e-06
9.67796e-07
-1.19876e-06
8.5936e-07
-1.36525e-06
7.25423e-07
-1.49807e-06
5.70964e-07
-1.59354e-06
3.98541e-07
-1.64809e-06
2.10088e-07
-1.65842e-06
7.9995e-09
-1.62068e-06
-2.06084e-07
-1.53193e-06
-4.27181e-07
-1.38995e-06
-6.49476e-07
-1.19459e-06
-8.631e-07
-9.49867e-07
-1.05171e-06
-6.67689e-07
-1.18624e-06
-3.7457e-07
-1.21174e-06
-1.22588e-07
-1.02783e-06
-4.91127e-07
-1.14449e-07
5.40865e-07
-3.42587e-07
1.10392e-06
-6.07698e-07
1.29942e-06
-8.71218e-07
1.30133e-06
-1.11609e-06
1.21267e-06
-1.33419e-06
1.07745e-06
-1.52053e-06
9.11764e-07
-1.6712e-06
7.21637e-07
-1.78256e-06
5.09899e-07
-1.85082e-06
2.78348e-07
-1.87174e-06
2.89245e-08
-1.84068e-06
-2.37144e-07
-1.75258e-06
-5.15287e-07
-1.60279e-06
-7.99261e-07
-1.3886e-06
-1.07729e-06
-1.11218e-06
-1.32813e-06
-7.85977e-07
-1.51244e-06
-4.41797e-07
-1.55592e-06
-1.44065e-07
-1.32556e-06
-6.35192e-07
-1.29846e-07
6.70711e-07
-3.8787e-07
1.36194e-06
-6.8641e-07
1.59796e-06
-9.81971e-07
1.59689e-06
-1.25603e-06
1.48672e-06
-1.50036e-06
1.32179e-06
-1.71037e-06
1.12178e-06
-1.88261e-06
8.93872e-07
-2.01373e-06
6.41019e-07
-2.0999e-06
3.64524e-07
-2.13624e-06
6.52609e-08
-2.11671e-06
-2.5667e-07
-2.03372e-06
-5.98283e-07
-1.87901e-06
-9.53967e-07
-1.64552e-06
-1.31078e-06
-1.33157e-06
-1.64208e-06
-9.48832e-07
-1.89518e-06
-5.35572e-07
-1.96918e-06
-1.74095e-07
-1.68704e-06
-8.09286e-07
-1.49435e-07
8.20146e-07
-4.44722e-07
1.65723e-06
-7.84064e-07
1.9373e-06
-1.11787e-06
1.93069e-06
-1.42605e-06
1.7949e-06
-1.70063e-06
1.59637e-06
-1.93784e-06
1.35899e-06
-2.13516e-06
1.0912e-06
-2.29006e-06
7.95918e-07
-2.3991e-06
4.73557e-07
-2.45706e-06
1.23219e-07
-2.45641e-06
-2.57312e-07
-2.38648e-06
-6.68218e-07
-2.23392e-06
-1.10653e-06
-1.98466e-06
-1.56004e-06
-1.6295e-06
-1.99723e-06
-1.17604e-06
-2.34864e-06
-6.6916e-07
-2.47607e-06
-2.17129e-07
-2.13907e-06
-1.02642e-06
-1.74398e-07
9.94544e-07
-5.16014e-07
1.99884e-06
-9.04639e-07
2.32593e-06
-1.28318e-06
2.30924e-06
-1.63011e-06
2.14183e-06
-1.93826e-06
1.90452e-06
-2.20539e-06
1.62612e-06
-2.43066e-06
1.31647e-06
-2.6131e-06
9.7836e-07
-2.75043e-06
6.10885e-07
-2.83779e-06
2.10575e-07
-2.8666e-06
-2.28496e-07
-2.82281e-06
-7.12007e-07
-2.68646e-06
-1.24288e-06
-2.43282e-06
-1.81368e-06
-2.03898e-06
-2.39108e-06
-1.50099e-06
-2.88663e-06
-8.67117e-07
-3.10994e-06
-2.82316e-07
-2.72387e-06
-1.30873e-06
-2.06714e-07
1.20126e-06
-6.06228e-07
2.39836e-06
-1.05398e-06
2.77368e-06
-1.48382e-06
2.73907e-06
-1.87324e-06
2.53125e-06
-2.21692e-06
2.2482e-06
-2.51514e-06
1.92434e-06
-2.76978e-06
1.5711e-06
-2.98251e-06
1.19109e-06
-3.1534e-06
7.81782e-07
-3.27927e-06
3.3644e-07
-3.35173e-06
-1.5603e-07
-3.35406e-06
-7.09685e-07
-3.25883e-06
-1.33811e-06
-3.02646e-06
-2.04605e-06
-2.61066e-06
-2.80688e-06
-1.98107e-06
-3.51621e-06
-1.17687e-06
-3.91414e-06
-3.89979e-07
-3.51077e-06
-1.69871e-06
-2.49825e-07
1.45108e-06
-7.2262e-07
2.87115e-06
-1.24096e-06
3.29202e-06
-1.72815e-06
3.22627e-06
-2.16208e-06
2.96519e-06
-2.54084e-06
2.62696e-06
-2.86865e-06
2.25215e-06
-3.15141e-06
1.85386e-06
-3.39483e-06
1.43451e-06
-3.603e-06
9.89953e-07
-3.77643e-06
5.09874e-07
-3.90966e-06
-2.28086e-08
-3.98576e-06
-6.33577e-07
-3.9714e-06
-1.35247e-06
-3.80918e-06
-2.20828e-06
-3.41668e-06
-3.19937e-06
-2.71052e-06
-4.22237e-06
-1.68818e-06
-4.93647e-06
-5.8593e-07
-4.61302e-06
-2.28464e-06
-3.09943e-07
1.76103e-06
-8.77206e-07
3.43842e-06
-1.47912e-06
3.89393e-06
-2.02796e-06
3.77511e-06
-2.50501e-06
3.44224e-06
-2.91429e-06
3.03624e-06
-3.26573e-06
2.60359e-06
-3.57068e-06
2.15881e-06
-3.84043e-06
1.70426e-06
-4.08505e-06
1.23458e-06
-4.31167e-06
7.36492e-07
-4.52164e-06
1.87161e-07
-4.70388e-06
-4.51339e-07
-4.82508e-06
-1.23127e-06
-4.81252e-06
-2.22084e-06
-4.536e-06
-3.4759e-06
-3.81949e-06
-4.93888e-06
-2.55095e-06
-6.20502e-06
-9.6444e-07
-6.19953e-06
-3.24908e-06
-3.98627e-07
2.15965e-06
-1.09011e-06
4.1299e-06
-1.78869e-06
4.59251e-06
-2.39851e-06
4.38493e-06
-2.91044e-06
3.95416e-06
-3.33812e-06
3.46393e-06
-3.69917e-06
2.96463e-06
-4.01176e-06
2.4714e-06
-4.29406e-06
1.98656e-06
-4.56386e-06
1.50438e-06
-4.83783e-06
1.01047e-06
-5.12886e-06
4.78186e-07
-5.44074e-06
-1.39459e-07
-5.75241e-06
-9.196e-07
-5.98959e-06
-1.98365e-06
-5.97491e-06
-3.49058e-06
-5.39971e-06
-5.51408e-06
-3.93518e-06
-7.66955e-06
-1.67437e-06
-8.46034e-06
-4.92344e-06
-5.37913e-07
2.69757e-06
-1.39477e-06
4.98676e-06
-2.19696e-06
5.39469e-06
-2.85302e-06
5.04099e-06
-3.37559e-06
4.47674e-06
-3.79296e-06
3.88129e-06
-4.13253e-06
3.3042e-06
-4.42041e-06
2.75928e-06
-4.68219e-06
2.24835e-06
-4.94376e-06
1.76594e-06
-5.23223e-06
1.29894e-06
-5.576e-06
8.21953e-07
-5.99958e-06
2.84122e-07
-6.50876e-06
-4.10424e-07
-7.05635e-06
-1.43606e-06
-7.44598e-06
-3.10095e-06
-7.23786e-06
-5.7222e-06
-5.79204e-06
-9.11537e-06
-2.82068e-06
-1.14317e-05
-7.74413e-06
-7.70986e-07
3.46855e-06
-1.84372e-06
6.05949e-06
-2.72564e-06
6.27661e-06
-3.37029e-06
5.68564e-06
-3.83473e-06
4.94118e-06
-4.16924e-06
4.2158e-06
-4.41416e-06
3.54912e-06
-4.60479e-06
2.94992e-06
-4.77364e-06
2.4172e-06
-4.95227e-06
1.94457e-06
-5.17408e-06
1.52075e-06
-5.47786e-06
1.12573e-06
-5.91021e-06
7.16471e-07
-6.49436e-06
1.73727e-07
-7.25376e-06
-6.76661e-07
-8.03323e-06
-2.32148e-06
-8.37353e-06
-5.3819e-06
-7.37853e-06
-1.01104e-05
-4.18239e-06
-1.46278e-05
-1.19265e-05
-1.18924e-06
4.65779e-06
-2.49716e-06
7.36741e-06
-3.30789e-06
7.08733e-06
-3.74309e-06
6.12084e-06
-3.94756e-06
5.14565e-06
-4.00902e-06
4.27726e-06
-3.98645e-06
3.52655e-06
-3.92496e-06
2.88843e-06
-3.8605e-06
2.35273e-06
-3.82266e-06
1.90673e-06
-3.83903e-06
1.53712e-06
-3.94086e-06
1.22756e-06
-4.16998e-06
9.45598e-07
-4.59494e-06
5.98688e-07
-5.23308e-06
-3.85287e-08
-6.11878e-06
-1.43577e-06
-7.00584e-06
-4.49484e-06
-7.04917e-06
-1.00671e-05
-4.86423e-06
-1.68128e-05
-1.67908e-05
-2.02107e-06
6.67887e-06
-3.24692e-06
8.59326e-06
-3.33674e-06
7.17716e-06
-2.93014e-06
5.71425e-06
-2.34916e-06
4.56467e-06
-1.72223e-06
3.65032e-06
-1.10838e-06
2.91271e-06
-5.43768e-07
2.32382e-06
-4.94556e-08
1.85842e-06
3.64446e-07
1.49283e-06
6.93083e-07
1.20849e-06
9.31951e-07
9.88694e-07
1.06583e-06
8.11722e-07
1.04775e-06
6.16769e-07
7.62036e-07
2.47181e-07
7.73043e-08
-7.51039e-07
-1.14272e-06
-3.27482e-06
-2.71308e-06
-8.49669e-06
-3.15671e-06
-1.63691e-05
-1.99475e-05
-3.45851e-06
1.01374e-05
-1.9532e-06
7.08794e-06
7.72833e-07
4.45113e-06
3.19235e-06
3.29473e-06
5.22285e-06
2.53417e-06
6.93871e-06
1.93446e-06
8.37816e-06
1.47326e-06
9.57133e-06
1.13065e-06
1.05524e-05
8.77339e-07
1.13561e-05
6.89184e-07
1.20134e-05
5.51163e-07
1.25511e-05
4.50934e-07
1.29846e-05
3.78276e-07
1.33013e-05
3.00038e-07
1.33911e-05
1.57391e-07
1.29393e-05
-2.99255e-07
1.13519e-05
-1.68738e-06
7.931e-06
-5.07581e-06
3.18952e-06
-1.16276e-05
-1.67579e-05
1.01374e-05
1.72253e-05
2.16764e-05
2.49712e-05
2.75053e-05
2.94398e-05
3.09131e-05
3.20437e-05
3.29211e-05
3.36102e-05
3.41614e-05
3.46123e-05
3.49906e-05
3.52907e-05
3.5448e-05
3.51488e-05
3.34614e-05
2.83856e-05
1.67579e-05
)
;

boundaryField
{
    movingWall
    {
        type            calculated;
        value           uniform 0;
    }
    fixedWalls
    {
        type            calculated;
        value           uniform 0;
    }
    frontAndBack
    {
        type            empty;
        value           nonuniform 0();
    }
}


// ************************************************************************* //
