/*--------------------------------*- C++ -*----------------------------------*\
| =========                 |                                                 |
| \\      /  F ield         | OpenFOAM: The Open Source CFD Toolbox           |
|  \\    /   O peration     | Version:  5.0                                   |
|   \\  /    A nd           | Web:      www.OpenFOAM.org                      |
|    \\/     M anipulation  |                                                 |
\*---------------------------------------------------------------------------*/
FoamFile
{
    version     2.0;
    format      ascii;
    class       volVectorField;
    location    "0.1";
    object      U;
}
// * * * * * * * * * * * * * * * * * * * * * * * * * * * * * * * * * * * * * //

dimensions      [0 1 -1 0 0 0 0];

internalField   nonuniform List<vector> 
400
(
(-8.35685e-05 7.61835e-05 0)
(-0.000736937 0.000393871 0)
(-0.00203 0.00053675 0)
(-0.00345996 0.000554336 0)
(-0.00483907 0.000522214 0)
(-0.0060976 0.000469333 0)
(-0.00719602 0.000403008 0)
(-0.00810226 0.000324571 0)
(-0.00878684 0.000234261 0)
(-0.00922223 0.000132621 0)
(-0.00938372 2.08824e-05 0)
(-0.00925125 -9.92198e-05 0)
(-0.0088115 -0.000224157 0)
(-0.00806037 -0.000349502 0)
(-0.00700661 -0.00046916 0)
(-0.00567674 -0.00057401 0)
(-0.00412381 -0.000647169 0)
(-0.00245238 -0.000648893 0)
(-0.000916283 -0.000493103 0)
(-0.000113945 -0.000117451 0)
(-0.000416864 0.000742492 0)
(-0.00205436 0.00199913 0)
(-0.00473594 0.00252353 0)
(-0.00762987 0.00257952 0)
(-0.0104037 0.00242347 0)
(-0.0129265 0.00216433 0)
(-0.0151125 0.00183722 0)
(-0.0168932 0.00145317 0)
(-0.0182113 0.00101744 0)
(-0.0190168 0.000535372 0)
(-0.0192686 1.43936e-05 0)
(-0.0189353 -0.000535077 0)
(-0.0179992 -0.00109806 0)
(-0.0164612 -0.00165462 0)
(-0.0143465 -0.00217757 0)
(-0.0117144 -0.00262662 0)
(-0.00867198 -0.00293035 0)
(-0.00540627 -0.002939 0)
(-0.0023478 -0.00235825 0)
(-0.00047371 -0.000895303 0)
(-0.000590418 0.00209989 0)
(-0.00275267 0.00473892 0)
(-0.00615864 0.00577194 0)
(-0.00977979 0.0058596 0)
(-0.013227 0.00549198 0)
(-0.0163522 0.00488749 0)
(-0.0190523 0.00412518 0)
(-0.0212444 0.00323447 0)
(-0.0228599 0.00223146 0)
(-0.0238403 0.00113112 0)
(-0.0241374 -4.82427e-05 0)
(-0.0237148 -0.00128232 0)
(-0.0225516 -0.00253839 0)
(-0.0206481 -0.00377271 0)
(-0.0180337 -0.00492566 0)
(-0.0147788 -0.00590894 0)
(-0.0110105 -0.00656997 0)
(-0.0069454 -0.00660751 0)
(-0.0030929 -0.00545557 0)
(-0.000656165 -0.00241339 0)
(-0.000669766 0.00373022 0)
(-0.00312301 0.00796416 0)
(-0.00696846 0.00954877 0)
(-0.01103 0.00964614 0)
(-0.0148799 0.00902161 0)
(-0.0183646 0.00801454 0)
(-0.021376 0.006751 0)
(-0.0238263 0.00528031 0)
(-0.0256423 0.00363038 0)
(-0.026761 0.00182642 0)
(-0.0271283 -0.000102087 0)
(-0.0267004 -0.00211785 0)
(-0.0254475 -0.00416904 0)
(-0.0233612 -0.00618655 0)
(-0.0204632 -0.00807458 0)
(-0.0168219 -0.0096899 0)
(-0.0125714 -0.0107869 0)
(-0.00795016 -0.0108902 0)
(-0.00354049 -0.00911034 0)
(-0.000747799 -0.00422723 0)
(-0.000729311 0.00551389 0)
(-0.0034217 0.0115024 0)
(-0.00764777 0.0136779 0)
(-0.0120994 0.0137712 0)
(-0.0163104 0.0128605 0)
(-0.0201222 0.0114173 0)
(-0.0234245 0.00961693 0)
(-0.0261279 0.0075285 0)
(-0.028157 0.00519074 0)
(-0.0294444 0.00263727 0)
(-0.0299293 -9.37636e-05 0)
(-0.0295559 -0.00295492 0)
(-0.0282786 -0.00587766 0)
(-0.026071 -0.00876833 0)
(-0.0229364 -0.0114922 0)
(-0.0189309 -0.0138429 0)
(-0.0141912 -0.0154647 0)
(-0.0089849 -0.0156766 0)
(-0.0039885 -0.0132084 0)
(-0.000833767 -0.00624613 0)
(-0.000800484 0.00746168 0)
(-0.00376732 0.0153818 0)
(-0.00842686 0.0182005 0)
(-0.0133259 0.0182818 0)
(-0.0179538 0.0170567 0)
(-0.0221458 0.0151437 0)
(-0.0257907 0.0127716 0)
(-0.0287995 0.0100296 0)
(-0.0310962 0.00696533 0)
(-0.0326093 0.0036172 0)
(-0.0332705 2.68789e-05 0)
(-0.0330076 -0.0037501 0)
(-0.0317513 -0.00763702 0)
(-0.0294466 -0.011518 0)
(-0.0260644 -0.0152168 0)
(-0.0216351 -0.0184513 0)
(-0.0162907 -0.0207279 0)
(-0.0103365 -0.0211103 0)
(-0.00457917 -0.017871 0)
(-0.000949208 -0.00852401 0)
(-0.000894351 0.00961928 0)
(-0.00420812 0.0196839 0)
(-0.00940512 0.0232075 0)
(-0.0148543 0.0232667 0)
(-0.0199917 0.0216923 0)
(-0.0246464 0.0192695 0)
(-0.028709 0.016286 0)
(-0.0320942 0.0128518 0)
(-0.0347284 0.0090212 0)
(-0.036539 0.00483266 0)
(-0.0374468 0.00032462 0)
(-0.0373628 -0.00444948 0)
(-0.0361882 -0.00941294 0)
(-0.0338218 -0.0144351 0)
(-0.0301825 -0.0192984 0)
(-0.025252 -0.0236299 0)
(-0.0191405 -0.0267579 0)
(-0.0121935 -0.0274148 0)
(-0.00539882 -0.0233047 0)
(-0.00111089 -0.0111622 0)
(-0.00101684 0.0120481 0)
(-0.00477099 0.0245182 0)
(-0.0106378 0.0288155 0)
(-0.016762 0.0288331 0)
(-0.022515 0.0268622 0)
(-0.0277226 0.0238783 0)
(-0.0322821 0.0202366 0)
(-0.0361175 0.0160687 0)
(-0.0391639 0.011433 0)
(-0.0413523 0.00636209 0)
(-0.0425971 0.000881644 0)
(-0.0427903 -0.00497402 0)
(-0.0417942 -0.0111409 0)
(-0.0394455 -0.0174896 0)
(-0.0355808 -0.0237686 0)
(-0.0300937 -0.0295006 0)
(-0.0230334 -0.0337807 0)
(-0.0147737 -0.0348949 0)
(-0.00654849 -0.0298047 0)
(-0.00133733 -0.0143023 0)
(-0.0011748 0.0148233 0)
(-0.00548359 0.0300185 0)
(-0.0121777 0.0351621 0)
(-0.0191171 0.0351013 0)
(-0.0255965 0.0326662 0)
(-0.0314447 0.0290544 0)
(-0.0365742 0.0246986 0)
(-0.0409281 0.0197542 0)
(-0.0444601 0.0142806 0)
(-0.0471142 0.00829679 0)
(-0.048807 0.00180229 0)
(-0.0494141 -0.00520547 0)
(-0.0487535 -0.0127029 0)
(-0.0465807 -0.0205907 0)
(-0.0426091 -0.0286071 0)
(-0.0365791 -0.0361668 0)
(-0.0284006 -0.0420643 0)
(-0.0184236 -0.0439651 0)
(-0.00820176 -0.0377995 0)
(-0.00166292 -0.018149 0)
(-0.00137951 0.0180388 0)
(-0.00638655 0.0363474 0)
(-0.0140962 0.0424052 0)
(-0.0220058 0.0421993 0)
(-0.0293212 0.0392021 0)
(-0.0358859 0.0348737 0)
(-0.0416424 0.029737 0)
(-0.046567 0.0239743 0)
(-0.0506474 0.0176434 0)
(-0.0538561 0.0107413 0)
(-0.0561268 0.00322554 0)
(-0.057331 -0.00496855 0)
(-0.0572459 -0.0138967 0)
(-0.0555303 -0.0235407 0)
(-0.0517255 -0.0336832 0)
(-0.04532 -0.0436588 0)
(-0.035937 -0.0518972 0)
(-0.0237586 -0.0551892 0)
(-0.0107008 -0.0479399 0)
(-0.00216377 -0.0230276 0)
(-0.001651 0.0218185 0)
(-0.0075459 0.043708 0)
(-0.0165018 0.0507279 0)
(-0.0255511 0.0502597 0)
(-0.0338018 0.0465571 0)
(-0.0411351 0.0413926 0)
(-0.0475446 0.0353946 0)
(-0.0530609 0.0287755 0)
(-0.0577263 0.0215899 0)
(-0.0615646 0.0138053 0)
(-0.0645519 0.00532131 0)
(-0.0665824 -0.00401852 0)
(-0.0674146 -0.0144008 0)
(-0.0666142 -0.0259684 0)
(-0.0635075 -0.0386562 0)
(-0.0571993 -0.0518209 0)
(-0.0467711 -0.063515 0)
(-0.0319013 -0.0693203 0)
(-0.014764 -0.0612669 0)
(-0.00302382 -0.0295238 0)
(-0.00202611 0.0263384 0)
(-0.00907305 0.0523652 0)
(-0.0195647 0.0603434 0)
(-0.0299337 0.0594129 0)
(-0.0391933 0.0547944 0)
(-0.0473028 0.0486322 0)
(-0.0543391 0.0416739 0)
(-0.0604131 0.0341653 0)
(-0.0656481 0.0261574 0)
(-0.0701491 0.0175845 0)
(-0.0739717 0.00827674 0)
(-0.0770801 -0.00204165 0)
(-0.0792696 -0.0137437 0)
(-0.080061 -0.0272457 0)
(-0.0785664 -0.0428201 0)
(-0.073371 -0.0600932 0)
(-0.0626225 -0.0769047 0)
(-0.0448255 -0.0873009 0)
(-0.0218989 -0.0795327 0)
(-0.00469503 -0.0388458 0)
(-0.00257511 0.0318669 0)
(-0.0111613 0.0626794 0)
(-0.023556 0.0715001 0)
(-0.0354192 0.0697716 0)
(-0.0457034 0.0639303 0)
(-0.0545179 0.0565523 0)
(-0.062067 0.0485098 0)
(-0.0685721 0.0400817 0)
(-0.0742657 0.0313173 0)
(-0.0793677 0.0221206 0)
(-0.0840596 0.0122535 0)
(-0.0884431 0.00131007 0)
(-0.092451 -0.011312 0)
(-0.0956893 -0.0264271 0)
(-0.0971671 -0.0449155 0)
(-0.0948987 -0.0671583 0)
(-0.085608 -0.0913543 0)
(-0.0655046 -0.11 0)
(-0.0349461 -0.105566 0)
(-0.00818837 -0.0535562 0)
(-0.00343621 0.0388434 0)
(-0.0141529 0.0751558 0)
(-0.0289066 0.0844709 0)
(-0.0423809 0.0813918 0)
(-0.053576 0.0738893 0)
(-0.0628756 0.0650061 0)
(-0.0706662 0.0557222 0)
(-0.0773091 0.0463407 0)
(-0.0831705 0.036911 0)
(-0.0886129 0.0273202 0)
(-0.0939865 0.0172852 0)
(-0.0996033 0.00629594 0)
(-0.105668 -0.00648548 0)
(-0.112095 -0.022352 0)
(-0.118091 -0.0430853 0)
(-0.121301 -0.0705917 0)
(-0.116631 -0.10465 0)
(-0.096581 -0.137094 0)
(-0.0577564 -0.142699 0)
(-0.0152605 -0.0781888 0)
(-0.0048875 0.0480408 0)
(-0.0186611 0.0905107 0)
(-0.0362768 0.0994932 0)
(-0.0512535 0.0941722 0)
(-0.062925 0.0844022 0)
(-0.0721571 0.07364 0)
(-0.0795801 0.0629122 0)
(-0.0857198 0.0525218 0)
(-0.0910906 0.0425176 0)
(-0.096204 0.0327886 0)
(-0.101588 0.0230519 0)
(-0.107805 0.0127676 0)
(-0.11542 0.000943396 0)
(-0.124859 -0.014194 0)
(-0.136024 -0.0354994 0)
(-0.146816 -0.0673374 0)
(-0.150472 -0.112981 0)
(-0.134961 -0.166036 0)
(-0.0911245 -0.193339 0)
(-0.0273416 -0.119698 0)
(-0.0075045 0.0609359 0)
(-0.025781 0.10971 0)
(-0.0465302 0.116538 0)
(-0.0620981 0.107571 0)
(-0.0728903 0.0947148 0)
(-0.0806032 0.0815912 0)
(-0.0861839 0.069154 0)
(-0.0903576 0.057663 0)
(-0.0937927 0.0471496 0)
(-0.0971183 0.0375072 0)
(-0.100971 0.0284909 0)
(-0.106065 0.0196304 0)
(-0.113255 0.00996896 0)
(-0.123401 -0.00256112 0)
(-0.137466 -0.0222989 0)
(-0.154683 -0.0564142 0)
(-0.168117 -0.114028 0)
(-0.162671 -0.194745 0)
(-0.123668 -0.260247 0)
(-0.0411237 -0.191615 0)
(-0.0125522 0.0804304 0)
(-0.0374076 0.133642 0)
(-0.0599462 0.134469 0)
(-0.0722524 0.11958 0)
(-0.0779377 0.102463 0)
(-0.0801384 0.0864074 0)
(-0.0802252 0.0720596 0)
(-0.0791633 0.0595081 0)
(-0.0777384 0.0486696 0)
(-0.0765807 0.0393703 0)
(-0.0762367 0.0313721 0)
(-0.0772659 0.0243058 0)
(-0.0803897 0.0173837 0)
(-0.0867893 0.00854169 0)
(-0.09792 -0.00746621 0)
(-0.11509 -0.0410249 0)
(-0.135157 -0.107952 0)
(-0.144608 -0.218719 0)
(-0.127672 -0.337389 0)
(-0.0426976 -0.305377 0)
(-0.0230716 0.111498 0)
(-0.056198 0.160409 0)
(-0.070066 0.146548 0)
(-0.0646883 0.121925 0)
(-0.0534312 0.0998574 0)
(-0.040786 0.0813686 0)
(-0.0280798 0.0660482 0)
(-0.0161343 0.0534949 0)
(-0.00547015 0.0432988 0)
(0.00364593 0.035081 0)
(0.0110941 0.0285289 0)
(0.0168117 0.0233278 0)
(0.0206014 0.0189432 0)
(0.0218813 0.0137926 0)
(0.0188987 0.00355111 0)
(0.00871039 -0.0232009 0)
(-0.0127604 -0.0866559 0)
(-0.0398596 -0.209621 0)
(-0.067596 -0.373731 0)
(-0.00755288 -0.409444 0)
(-0.0551684 0.188883 0)
(-0.0657399 0.172566 0)
(-0.0127621 0.122971 0)
(0.0405021 0.0940618 0)
(0.0853877 0.0738568 0)
(0.122985 0.0578219 0)
(0.154506 0.0451712 0)
(0.180707 0.0354626 0)
(0.202289 0.0280785 0)
(0.219984 0.0224626 0)
(0.234445 0.0182409 0)
(0.246294 0.0151269 0)
(0.255783 0.012872 0)
(0.263115 0.0106839 0)
(0.266087 0.0066705 0)
(0.261563 -0.00558805 0)
(0.238727 -0.0406501 0)
(0.196503 -0.128837 0)
(0.105705 -0.285441 0)
(0.100828 -0.376479 0)
(0.22489 0.133421 0)
(0.273003 0.113017 0)
(0.38012 0.0787305 0)
(0.46744 0.0566151 0)
(0.528322 0.0420671 0)
(0.572217 0.0314264 0)
(0.60544 0.0234025 0)
(0.63103 0.0174277 0)
(0.650807 0.0130441 0)
(0.666236 0.00985262 0)
(0.678373 0.00756678 0)
(0.688268 0.00594546 0)
(0.695997 0.00484648 0)
(0.702608 0.00398864 0)
(0.704612 0.00282102 0)
(0.702892 0.00018407 0)
(0.677581 -0.0079315 0)
(0.631854 -0.026309 0)
(0.487648 -0.0753542 0)
(0.363954 -0.137798 0)
)
;

boundaryField
{
    movingWall
    {
        type            fixedValue;
        value           uniform (1 0 0);
    }
    fixedWalls
    {
        type            noSlip;
    }
    frontAndBack
    {
        type            empty;
    }
}


// ************************************************************************* //
