/*--------------------------------*- C++ -*----------------------------------*\
| =========                 |                                                 |
| \\      /  F ield         | OpenFOAM: The Open Source CFD Toolbox           |
|  \\    /   O peration     | Version:  5.0                                   |
|   \\  /    A nd           | Web:      www.OpenFOAM.org                      |
|    \\/     M anipulation  |                                                 |
\*---------------------------------------------------------------------------*/
FoamFile
{
    version     2.0;
    format      ascii;
    class       volScalarField;
    location    "0.4";
    object      p;
}
// * * * * * * * * * * * * * * * * * * * * * * * * * * * * * * * * * * * * * //

dimensions      [0 2 -2 0 0 0 0];

internalField   nonuniform List<scalar> 
400
(
2.14546e-08
-0.00114589
-0.00247591
-0.0034642
-0.00383336
-0.00346434
-0.00233909
-0.000503064
0.001948
0.00486563
0.00804287
0.0112156
0.0140804
0.0163303
0.0177095
0.0180773
0.0174708
0.0161478
0.0145726
0.0134525
0.00113205
-5.46462e-05
-0.00108625
-0.0017499
-0.00193653
-0.0015665
-0.000619348
0.000878044
0.00285878
0.00521167
0.00777607
0.0103441
0.0126744
0.0145232
0.0156891
0.0160634
0.0156774
0.0147208
0.0134877
0.0123518
0.00253811
0.000899747
-0.000202231
-0.000795075
-0.000942508
-0.000614389
0.000198064
0.00147539
0.00317225
0.00520713
0.00745212
0.00973038
0.0118269
0.0135154
0.0145991
0.0149596
0.0146036
0.0136702
0.0123086
0.0106917
0.00368937
0.00145372
0.000106576
-0.000558276
-0.00075595
-0.000501382
0.000200671
0.00133534
0.00287606
0.00476662
0.00690311
0.00912467
0.011219
0.0129461
0.0140795
0.0144597
0.0140523
0.0129554
0.0112163
0.00891642
0.00419822
0.00136128
-0.000272048
-0.00105813
-0.0013439
-0.00118045
-0.000580653
0.000449061
0.00190348
0.0037528
0.00591587
0.00824292
0.0105135
0.0124562
0.0137907
0.0142898
0.0138574
0.0125469
0.0103229
0.00722023
0.00375242
0.000348591
-0.00157239
-0.00249841
-0.00289179
-0.00283095
-0.00232974
-0.00137985
4.04888e-05
0.00193299
0.00424335
0.0068342
0.00947265
0.0118429
0.0135873
0.0143789
0.0140288
0.0125273
0.00975415
0.00572486
0.00208538
-0.00183924
-0.00403225
-0.00510166
-0.00561362
-0.00566744
-0.00527127
-0.00439456
-0.00298009
-0.000984822
0.00157454
0.00458301
0.00779904
0.0108556
0.013294
0.0146482
0.0145884
0.0129999
0.0096461
0.00452862
-0.00104404
-0.00543885
-0.00787773
-0.00908325
-0.00971971
-0.00990468
-0.00963573
-0.00885247
-0.00745128
-0.00533287
-0.00245762
0.00110337
0.0051152
0.00916344
0.0126698
0.0149812
0.0155575
0.0141041
0.0101904
0.00378163
-0.00585813
-0.0106735
-0.0133234
-0.0146451
-0.0154035
-0.0157373
-0.0156322
-0.0149914
-0.0136526
-0.0114404
-0.00823037
-0.00402367
0.000990906
0.00637151
0.0114134
0.0152276
0.0169716
0.0160495
0.0116934
0.0037643
-0.0125603
-0.0177543
-0.020565
-0.0219555
-0.0228078
-0.0232937
-0.0233905
-0.0229611
-0.0217725
-0.0195518
-0.0160582
-0.011171
-0.00498835
0.00206925
0.00919088
0.0152166
0.0188951
0.0191531
0.0146457
0.00498213
-0.0213407
-0.0268885
-0.0297734
-0.0311225
-0.0319788
-0.0325723
-0.0328819
-0.0327288
-0.0317984
-0.0296987
-0.0260367
-0.0205193
-0.0130833
-0.00405057
0.00572377
0.0148134
0.0214615
0.0238927
0.0198169
0.00830208
-0.0324074
-0.0383066
-0.0410962
-0.0421655
-0.0428133
-0.0433698
-0.0438298
-0.0439727
-0.0433918
-0.0415553
-0.0378852
-0.0318649
-0.0231927
-0.0119875
0.000966004
0.014052
0.0249688
0.0309963
0.0283914
0.0151659
-0.046078
-0.0523285
-0.0546699
-0.0549834
-0.0550006
-0.0552098
-0.0556313
-0.0559952
-0.0557864
-0.0543137
-0.0507874
-0.0444253
-0.03462
-0.0211727
-0.00463578
0.0133612
0.0300536
0.0415912
0.0421722
0.0279439
-0.0630079
-0.069492
-0.0706396
-0.0693137
-0.0679651
-0.0672894
-0.0673154
-0.0676919
-0.0677642
-0.0666545
-0.0633407
-0.0567506
-0.0459281
-0.0302601
-0.00988643
0.0138253
0.0379187
0.0574121
0.0638869
0.0505422
-0.0847197
-0.0907795
-0.0891506
-0.0846517
-0.0807973
-0.0784506
-0.0775606
-0.0776134
-0.0777561
-0.0768754
-0.0737013
-0.0668653
-0.0550422
-0.037159
-0.0127864
0.0173068
0.050474
0.0809648
0.0975439
0.0893032
-0.114715
-0.117964
-0.110267
-0.100117
-0.0921848
-0.087196
-0.0847925
-0.0841373
-0.0840909
-0.0832081
-0.0799681
-0.0727084
-0.0597257
-0.039491
-0.0108979
0.0262176
0.0702142
0.115455
0.148551
0.153773
-0.160815
-0.154018
-0.133903
-0.114489
-0.100541
-0.091901
-0.087487
-0.0858726
-0.0854175
-0.0843522
-0.0808282
-0.072897
-0.058505
-0.0356316
-0.00239736
0.0426201
0.0995504
0.164258
0.22369
0.258028
-0.242854
-0.202798
-0.158596
-0.125522
-0.10369
-0.0907655
-0.0843288
-0.0819337
-0.0812595
-0.0801253
-0.0763897
-0.0678518
-0.0521136
-0.0266509
0.0113886
0.0651656
0.137542
0.227987
0.331535
0.431865
-0.418787
-0.264343
-0.171152
-0.121863
-0.0936317
-0.0784665
-0.0720387
-0.0705971
-0.0711024
-0.0710744
-0.0682449
-0.0603071
-0.0446926
-0.0185119
0.0220784
0.0824399
0.170064
0.294175
0.475744
0.74154
-0.763947
-0.323993
-0.142109
-0.0834817
-0.0587223
-0.0483824
-0.0470314
-0.0502777
-0.0548284
-0.0583012
-0.058626
-0.0537059
-0.0412907
-0.0182898
0.0191802
0.0776828
0.170238
0.325402
0.623968
1.18292
)
;

boundaryField
{
    movingWall
    {
        type            zeroGradient;
    }
    fixedWalls
    {
        type            zeroGradient;
    }
    frontAndBack
    {
        type            empty;
    }
}


// ************************************************************************* //
