/*--------------------------------*- C++ -*----------------------------------*\
| =========                 |                                                 |
| \\      /  F ield         | OpenFOAM: The Open Source CFD Toolbox           |
|  \\    /   O peration     | Version:  5.0                                   |
|   \\  /    A nd           | Web:      www.OpenFOAM.org                      |
|    \\/     M anipulation  |                                                 |
\*---------------------------------------------------------------------------*/
FoamFile
{
    version     2.0;
    format      ascii;
    class       surfaceScalarField;
    location    "0.4";
    object      phi;
}
// * * * * * * * * * * * * * * * * * * * * * * * * * * * * * * * * * * * * * //

dimensions      [0 3 -1 0 0 0 0];

internalField   nonuniform List<scalar> 
760
(
1.19808e-08
-1.19825e-08
-2.60309e-08
3.80124e-08
-1.15337e-07
8.93059e-08
-2.39219e-07
1.23883e-07
-3.8001e-07
1.40791e-07
-5.22227e-07
1.42218e-07
-6.52707e-07
1.3048e-07
-7.60115e-07
1.07408e-07
-8.34599e-07
7.4484e-08
-8.68007e-07
3.34082e-08
-8.54733e-07
-1.32739e-08
-7.93037e-07
-6.16953e-08
-6.86432e-07
-1.06605e-07
-5.44698e-07
-1.41734e-07
-3.83982e-07
-1.60716e-07
-2.25546e-07
-1.58436e-07
-9.29135e-08
-1.32633e-07
-7.39558e-09
-8.55181e-08
1.92646e-08
-2.66601e-08
1.92645e-08
-3.75633e-08
2.55817e-08
-1.84383e-07
1.84831e-07
-4.30539e-07
3.35461e-07
-7.45183e-07
4.38525e-07
-1.09299e-06
4.88596e-07
-1.43994e-06
4.89173e-07
-1.75528e-06
4.45817e-07
-2.0119e-06
3.64024e-07
-2.18665e-06
2.49243e-07
-2.26137e-06
1.08121e-07
-2.22468e-06
-4.99633e-08
-2.07445e-06
-2.11917e-07
-1.82028e-06
-3.60779e-07
-1.4849e-06
-4.77118e-07
-1.10385e-06
-5.41763e-07
-7.22405e-07
-5.39883e-07
-3.89215e-07
-4.65824e-07
-1.46998e-07
-3.27735e-07
-2.11662e-08
-1.52492e-07
-1.90153e-09
-9.61755e-08
1.21757e-07
-3.60165e-07
4.48823e-07
-7.55603e-07
7.30899e-07
-1.23687e-06
9.19788e-07
-1.75591e-06
1.00764e-06
-2.26666e-06
9.99915e-07
-2.7269e-06
9.06062e-07
-3.09918e-06
7.36304e-07
-3.35159e-06
5.01652e-07
-3.45934e-06
2.15869e-07
-3.40718e-06
-1.02121e-07
-3.19246e-06
-4.26635e-07
-2.82806e-06
-7.25179e-07
-2.34426e-06
-9.60918e-07
-1.7884e-06
-1.09762e-06
-1.22117e-06
-1.10711e-06
-7.08913e-07
-9.78085e-07
-3.12199e-07
-7.24448e-07
-7.23898e-08
-3.92301e-07
-7.4291e-08
-1.49994e-07
2.71751e-07
-5.26906e-07
8.25736e-07
-1.06457e-06
1.26856e-06
-1.69948e-06
1.5547e-06
-2.37159e-06
1.67975e-06
-3.02564e-06
1.65397e-06
-3.61171e-06
1.49213e-06
-4.08553e-06
1.21012e-06
-4.4092e-06
8.25321e-07
-4.55287e-06
3.59544e-07
-4.49743e-06
-1.57567e-07
-4.2379e-06
-6.86159e-07
-3.78711e-06
-1.17597e-06
-3.1784e-06
-1.56962e-06
-2.46635e-06
-1.80968e-06
-1.72377e-06
-1.84969e-06
-1.03396e-06
-1.66789e-06
-4.78321e-07
-1.28009e-06
-1.21601e-07
-7.49021e-07
-1.95892e-07
-1.98293e-07
4.70044e-07
-6.80696e-07
1.30814e-06
-1.3522e-06
1.94007e-06
-2.13069e-06
2.33318e-06
-2.94446e-06
2.49353e-06
-3.73074e-06
2.44024e-06
-4.43422e-06
2.19561e-06
-5.00615e-06
1.78205e-06
-5.40432e-06
1.22349e-06
-5.59434e-06
5.49569e-07
-5.55225e-06
-1.99654e-07
-5.26828e-06
-9.70137e-07
-4.75138e-06
-1.69287e-06
-4.03371e-06
-2.2873e-06
-3.17343e-06
-2.66996e-06
-2.25395e-06
-2.76916e-06
-1.37735e-06
-2.54449e-06
-6.51073e-07
-2.00637e-06
-1.70132e-07
-1.22996e-06
-3.66025e-07
-2.41959e-07
7.12002e-07
-8.21724e-07
1.8879e-06
-1.61772e-06
2.73606e-06
-2.52991e-06
3.24538e-06
-3.47582e-06
3.43944e-06
-4.38661e-06
3.35103e-06
-5.20348e-06
3.01248e-06
-5.87504e-06
2.45361e-06
-6.35604e-06
1.70449e-06
-6.60774e-06
8.01274e-07
-6.6001e-06
-2.0729e-07
-6.31573e-06
-1.25452e-06
-5.75557e-06
-2.25302e-06
-4.94569e-06
-3.09717e-06
-3.94359e-06
-3.67206e-06
-2.84129e-06
-3.87146e-06
-1.76157e-06
-3.62421e-06
-8.44288e-07
-2.92365e-06
-2.23413e-07
-1.85084e-06
-5.89439e-07
-2.81607e-07
9.93609e-07
-9.50282e-07
2.55658e-06
-1.86006e-06
3.64584e-06
-2.8943e-06
4.27962e-06
-3.96105e-06
4.50619e-06
-4.98715e-06
4.37712e-06
-5.91235e-06
3.93769e-06
-6.68464e-06
3.2259e-06
-7.25725e-06
2.27709e-06
-7.58766e-06
1.13169e-06
-7.63895e-06
-1.55997e-07
-7.38351e-06
-1.50995e-06
-6.8099e-06
-2.82663e-06
-5.93222e-06
-3.97486e-06
-4.80106e-06
-4.80321e-06
-3.51272e-06
-5.1598e-06
-2.21086e-06
-4.92608e-06
-1.07427e-06
-4.06023e-06
-2.87746e-07
-2.63736e-06
-8.77184e-07
-3.17443e-07
1.31105e-06
-1.06598e-06
3.30512e-06
-2.07667e-06
4.65653e-06
-3.21748e-06
5.42042e-06
-4.38862e-06
5.67733e-06
-5.5148e-06
5.5033e-06
-6.5369e-06
4.95979e-06
-7.40493e-06
4.09393e-06
-8.07297e-06
2.94513e-06
-8.49635e-06
1.55507e-06
-8.63168e-06
-2.06698e-08
-8.43949e-06
-1.70214e-06
-7.89192e-06
-3.37421e-06
-6.98422e-06
-4.88255e-06
-5.75125e-06
-6.03618e-06
-4.28503e-06
-6.62603e-06
-2.7461e-06
-6.465e-06
-1.35736e-06
-5.44898e-06
-3.69747e-07
-3.62498e-06
-1.24693e-06
-3.4961e-07
1.66066e-06
-1.16835e-06
4.12386e-06
-2.26421e-06
5.75239e-06
-3.49033e-06
6.64655e-06
-4.74094e-06
6.92794e-06
-5.94138e-06
6.70375e-06
-7.03703e-06
6.05544e-06
-7.98356e-06
5.04046e-06
-8.73952e-06
3.70109e-06
-9.26141e-06
2.07696e-06
-9.50136e-06
2.19272e-07
-9.4089e-06
-1.7946e-06
-8.93676e-06
-3.84635e-06
-8.05449e-06
-5.76482e-06
-6.7697e-06
-7.32097e-06
-5.15601e-06
-8.23972e-06
-3.37976e-06
-8.24125e-06
-1.70822e-06
-7.12051e-06
-4.76384e-07
-4.85682e-06
-1.72331e-06
-3.79026e-07
2.03969e-06
-1.25862e-06
5.00345e-06
-2.42086e-06
6.91463e-06
-3.70351e-06
7.9292e-06
-4.99687e-06
8.22129e-06
-6.23056e-06
7.93745e-06
-7.35886e-06
7.18373e-06
-8.34788e-06
6.02948e-06
-9.16573e-06
4.51893e-06
-9.77516e-06
2.6864e-06
-1.01289e-05
5.73055e-07
-1.01686e-05
-1.75498e-06
-9.8279e-06
-4.18701e-06
-9.0455e-06
-6.54722e-06
-7.78887e-06
-8.5776e-06
-6.09321e-06
-9.93537e-06
-4.10903e-06
-1.02254e-05
-2.1379e-06
-9.09165e-06
-6.15298e-07
-6.37943e-06
-2.33861e-06
-4.08815e-07
2.4485e-06
-1.34274e-06
5.93738e-06
-2.55001e-06
8.12189e-06
-3.85105e-06
9.23025e-06
-5.13515e-06
9.50539e-06
-6.34134e-06
9.14363e-06
-7.43848e-06
8.28087e-06
-8.40914e-06
7.00015e-06
-9.2373e-06
5.34709e-06
-9.89895e-06
3.34804e-06
-1.03549e-05
1.02897e-06
-1.05458e-05
-1.56408e-06
-1.03915e-05
-4.34124e-06
-9.79882e-06
-7.13993e-06
-8.68408e-06
-9.69235e-06
-7.01971e-06
-1.15997e-05
-4.90601e-06
-1.23391e-05
-2.65049e-06
-1.13472e-05
-7.95258e-07
-8.23466e-06
-3.13387e-06
-4.46598e-07
2.8951e-06
-1.43546e-06
6.92624e-06
-2.66442e-06
9.35084e-06
-3.93378e-06
1.04996e-05
-5.13719e-06
1.07088e-05
-6.2308e-06
1.02372e-05
-7.20566e-06
9.25574e-06
-8.06777e-06
7.86226e-06
-8.82399e-06
6.1033e-06
-9.47138e-06
3.99544e-06
-9.98815e-06
1.54574e-06
-1.03251e-05
-1.22718e-06
-1.03987e-05
-4.26761e-06
-1.00905e-05
-7.44814e-06
-9.26149e-06
-1.05213e-05
-7.79786e-06
-1.30634e-05
-5.70351e-06
-1.44335e-05
-3.23695e-06
-1.38137e-05
-1.0266e-06
-1.0445e-05
-4.16047e-06
-5.08208e-07
3.40331e-06
-1.5654e-06
7.98344e-06
-2.78927e-06
1.05747e-05
-3.95925e-06
1.16696e-05
-4.98475e-06
1.17343e-05
-5.85149e-06
1.1104e-05
-6.58271e-06
9.98696e-06
-7.21541e-06
8.49496e-06
-7.78584e-06
6.67374e-06
-8.31927e-06
4.52887e-06
-8.8207e-06
2.04717e-06
-9.26376e-06
-7.84116e-07
-9.57807e-06
-3.9533e-06
-9.63624e-06
-7.38998e-06
-9.25249e-06
-1.09051e-05
-8.21335e-06
-1.41025e-05
-6.37596e-06
-1.62709e-05
-3.86387e-06
-1.63258e-05
-1.32109e-06
-1.29878e-05
-5.48156e-06
-6.23678e-07
4.02699e-06
-1.77948e-06
9.13923e-06
-2.95874e-06
1.1754e-05
-3.93028e-06
1.26411e-05
-4.6435e-06
1.24475e-05
-5.13369e-06
1.15942e-05
-5.46898e-06
1.03223e-05
-5.72451e-06
8.75049e-06
-5.97009e-06
6.91932e-06
-6.26297e-06
4.82174e-06
-6.6412e-06
2.4254e-06
-7.11263e-06
-3.12679e-07
-7.6388e-06
-3.42713e-06
-8.10942e-06
-6.91935e-06
-8.31867e-06
-1.06958e-05
-7.96292e-06
-1.44583e-05
-6.71492e-06
-1.75189e-05
-4.45314e-06
-1.85876e-05
-1.68887e-06
-1.57521e-05
-7.17043e-06
-8.45523e-07
4.87251e-06
-2.13983e-06
1.04335e-05
-3.19163e-06
1.28058e-05
-3.80345e-06
1.3253e-05
-4.01292e-06
1.2657e-05
-3.93431e-06
1.15156e-05
-3.69448e-06
1.00824e-05
-3.41038e-06
8.4664e-06
-3.18457e-06
6.6935e-06
-3.10303e-06
4.7402e-06
-3.23614e-06
2.55851e-06
-3.631e-06
8.21831e-08
-4.29587e-06
-2.76227e-06
-5.16842e-06
-6.0468e-06
-6.06847e-06
-9.79579e-06
-6.64776e-06
-1.3879e-05
-6.39712e-06
-1.77695e-05
-4.84323e-06
-2.01415e-05
-2.12425e-06
-1.8471e-05
-9.29468e-06
-1.25183e-06
6.12434e-06
-2.68612e-06
1.18678e-05
-3.40513e-06
1.35248e-05
-3.37498e-06
1.32228e-05
-2.80532e-06
1.20873e-05
-1.92325e-06
1.06335e-05
-9.20886e-07
9.08006e-06
4.89165e-08
7.4966e-06
8.65405e-07
5.87702e-06
1.42422e-06
4.18138e-06
1.63493e-06
2.3478e-06
1.41753e-06
2.99581e-07
7.14351e-07
-2.05909e-06
-4.85118e-07
-4.84733e-06
-2.08245e-06
-8.19846e-06
-3.77206e-06
-1.21893e-05
-4.93993e-06
-1.66016e-05
-4.71566e-06
-2.03658e-05
-2.55946e-06
-2.06272e-05
-1.18541e-05
-1.91109e-06
8.03543e-06
-3.26951e-06
1.32263e-05
-3.15995e-06
1.34152e-05
-2.00726e-06
1.20701e-05
-2.97502e-07
1.03776e-05
1.62289e-06
8.71309e-06
3.52161e-06
7.18134e-06
5.24225e-06
5.77596e-06
6.67114e-06
4.44812e-06
7.71579e-06
3.13673e-06
8.28775e-06
1.77585e-06
8.29441e-06
2.92919e-07
7.64114e-06
-1.40582e-06
6.24084e-06
-3.44703e-06
4.06456e-06
-6.02218e-06
1.25956e-06
-9.38435e-06
-1.6345e-06
-1.37076e-05
-3.4728e-06
-1.85275e-05
-2.76791e-06
-2.13321e-05
-1.46221e-05
-2.695e-06
1.07304e-05
-2.97436e-06
1.35056e-05
-9.97978e-07
1.14388e-05
1.93275e-06
9.13938e-06
5.08024e-06
7.23009e-06
8.094e-06
5.69933e-06
1.08015e-05
4.47383e-06
1.3113e-05
3.46449e-06
1.49731e-05
2.58799e-06
1.63337e-05
1.77614e-06
1.71375e-05
9.72021e-07
1.73067e-05
1.23752e-07
1.67396e-05
-8.38707e-07
1.52957e-05
-2.0031e-06
1.28125e-05
-3.53907e-06
9.17809e-06
-5.74989e-06
4.58338e-06
-9.11288e-06
5.61782e-08
-1.40003e-05
-2.13644e-06
-1.91395e-05
-1.67585e-05
-1.76209e-06
1.24925e-05
1.79567e-06
9.94786e-06
6.9874e-06
6.2471e-06
1.18821e-05
4.24472e-06
1.60994e-05
3.01271e-06
1.96252e-05
2.17359e-06
2.25127e-05
1.58632e-06
2.48206e-05
1.1566e-06
2.65913e-05
8.17233e-07
2.78432e-05
5.24291e-07
2.85668e-05
2.48453e-07
2.87212e-05
-3.06427e-08
2.82309e-05
-3.48498e-07
2.69546e-05
-7.26707e-07
2.46617e-05
-1.24619e-06
2.09892e-05
-2.07743e-06
1.55175e-05
-3.64119e-06
8.31591e-06
-6.79865e-06
1.51611e-06
-1.23397e-05
-1.52424e-05
1.24925e-05
2.24404e-05
2.86875e-05
3.29322e-05
3.59449e-05
3.81185e-05
3.97048e-05
4.08614e-05
4.16787e-05
4.22029e-05
4.24514e-05
4.24208e-05
4.20723e-05
4.13455e-05
4.00994e-05
3.80219e-05
3.43807e-05
2.75821e-05
1.52424e-05
)
;

boundaryField
{
    movingWall
    {
        type            calculated;
        value           uniform 0;
    }
    fixedWalls
    {
        type            calculated;
        value           uniform 0;
    }
    frontAndBack
    {
        type            empty;
        value           nonuniform 0();
    }
}


// ************************************************************************* //
