/*--------------------------------*- C++ -*----------------------------------*\
| =========                 |                                                 |
| \\      /  F ield         | OpenFOAM: The Open Source CFD Toolbox           |
|  \\    /   O peration     | Version:  5.0                                   |
|   \\  /    A nd           | Web:      www.OpenFOAM.org                      |
|    \\/     M anipulation  |                                                 |
\*---------------------------------------------------------------------------*/
FoamFile
{
    version     2.0;
    format      ascii;
    class       volVectorField;
    location    "0.4";
    object      U;
}
// * * * * * * * * * * * * * * * * * * * * * * * * * * * * * * * * * * * * * //

dimensions      [0 1 -1 0 0 0 0];

internalField   nonuniform List<vector> 
400
(
(0.000231616 -0.000230883 0)
(7.52284e-05 0.00012618 0)
(-0.00124046 0.000541993 0)
(-0.00344184 0.000821517 0)
(-0.00615659 0.000959834 0)
(-0.00904831 0.000981867 0)
(-0.0118294 0.000909979 0)
(-0.014255 0.000758935 0)
(-0.0161126 0.000537967 0)
(-0.0172197 0.000256471 0)
(-0.0174347 -6.98239e-05 0)
(-0.0166789 -0.000414473 0)
(-0.014966 -0.000738514 0)
(-0.0124274 -0.000993401 0)
(-0.00932538 -0.00112796 0)
(-0.00604313 -0.00109917 0)
(-0.00304286 -0.000885298 0)
(-0.000787921 -0.00050043 0)
(0.000349439 -2.49999e-05 0)
(0.000300304 0.000289343 0)
(-0.000113922 -9.49512e-05 0)
(-0.00170595 0.00168731 0)
(-0.00573546 0.00350724 0)
(-0.0115201 0.00476225 0)
(-0.018312 0.00538475 0)
(-0.0254139 0.00543173 0)
(-0.0321754 0.00497848 0)
(-0.0380149 0.00409122 0)
(-0.0424263 0.0028289 0)
(-0.0449897 0.00126115 0)
(-0.0454001 -0.000510658 0)
(-0.0435116 -0.00233851 0)
(-0.0393905 -0.00402557 0)
(-0.0333578 -0.00534131 0)
(-0.0260042 -0.00605496 0)
(-0.0181596 -0.00598509 0)
(-0.0107958 -0.00505877 0)
(-0.00486432 -0.00337086 0)
(-0.00113081 -0.00126822 0)
(5.32228e-05 0.000386479 0)
(-0.000574937 0.00124275 0)
(-0.00381556 0.00578762 0)
(-0.0105826 0.00993287 0)
(-0.0196217 0.0127658 0)
(-0.0298623 0.0141293 0)
(-0.0403769 0.0141019 0)
(-0.0502832 0.0128269 0)
(-0.0587786 0.0104553 0)
(-0.0651631 0.00714461 0)
(-0.0688605 0.00309021 0)
(-0.0694577 -0.00143635 0)
(-0.0667623 -0.00606073 0)
(-0.0608655 -0.0103065 0)
(-0.0521955 -0.0136313 0)
(-0.0415379 -0.0155036 0)
(-0.0300001 -0.015515 0)
(-0.0188902 -0.0135128 0)
(-0.00951278 -0.00972579 0)
(-0.00302905 -0.00488762 0)
(-0.000323057 -0.000537475 0)
(-0.00098791 0.00372341 0)
(-0.00580095 0.0122419 0)
(-0.0152111 0.0193381 0)
(-0.0273047 0.0240315 0)
(-0.0406699 0.0261661 0)
(-0.0541923 0.02588 0)
(-0.0668288 0.0234059 0)
(-0.0776315 0.0189996 0)
(-0.0857721 0.0129423 0)
(-0.0905633 0.00558725 0)
(-0.0915014 -0.00258264 0)
(-0.0883294 -0.0109163 0)
(-0.0811118 -0.0185957 0)
(-0.0703019 -0.0246936 0)
(-0.0567844 -0.0282955 0)
(-0.0418589 -0.028684 0)
(-0.0271225 -0.0255589 0)
(-0.0142506 -0.019243 0)
(-0.0049076 -0.0108394 0)
(-0.000664635 -0.00248236 0)
(-0.00134718 0.00722431 0)
(-0.00760842 0.0208729 0)
(-0.0195085 0.0314775 0)
(-0.0344714 0.03822 0)
(-0.0507401 0.0410819 0)
(-0.0670342 0.0403346 0)
(-0.0821932 0.0363368 0)
(-0.0951739 0.0294664 0)
(-0.105063 0.0201373 0)
(-0.111085 0.0088669 0)
(-0.112642 -0.0036435 0)
(-0.109379 -0.0164519 0)
(-0.101267 -0.028369 0)
(-0.0887005 -0.0380281 0)
(-0.0725769 -0.0440462 0)
(-0.0543302 -0.0452816 0)
(-0.0358447 -0.0411599 0)
(-0.0192382 -0.0319863 0)
(-0.00681569 -0.0191607 0)
(-0.000978937 -0.00538366 0)
(-0.00166585 0.0116439 0)
(-0.00925255 0.0315322 0)
(-0.0234646 0.0461994 0)
(-0.0411 0.0551767 0)
(-0.0600721 0.058726 0)
(-0.0789565 0.0573421 0)
(-0.0965103 0.051558 0)
(-0.111635 0.0418914 0)
(-0.123366 0.0288857 0)
(-0.130858 0.0132068 0)
(-0.133409 -0.00424625 0)
(-0.130523 -0.0222552 0)
(-0.122008 -0.0392528 0)
(-0.108103 -0.0533854 0)
(-0.0896225 -0.0626974 0)
(-0.0680621 -0.0654604 0)
(-0.0455865 -0.0606266 0)
(-0.0248389 -0.0483006 0)
(-0.00893744 -0.0300802 0)
(-0.00131458 -0.00928185 0)
(-0.00195313 0.0168964 0)
(-0.0107476 0.0440578 0)
(-0.0270745 0.0633137 0)
(-0.0471514 0.0747057 0)
(-0.0685896 0.0789172 0)
(-0.0898499 0.076766 0)
(-0.109646 0.0690133 0)
(-0.126866 0.0563334 0)
(-0.140533 0.0393854 0)
(-0.149752 0.0189478 0)
(-0.153719 -0.00393159 0)
(-0.151764 -0.027805 0)
(-0.143462 -0.0507503 0)
(-0.128791 -0.0703981 0)
(-0.108352 -0.0841097 0)
(-0.0835874 -0.0893617 0)
(-0.0568857 -0.0843486 0)
(-0.0314746 -0.068689 0)
(-0.0114968 -0.0440131 0)
(-0.00172882 -0.0143332 0)
(-0.00221351 0.0229036 0)
(-0.0120981 0.0582751 0)
(-0.0303164 0.082587 0)
(-0.0525434 0.0965423 0)
(-0.076119 0.101391 0)
(-0.0994265 0.0983798 0)
(-0.121184 0.0885595 0)
(-0.140324 0.072777 0)
(-0.155904 0.0517857 0)
(-0.167027 0.0264225 0)
(-0.172805 -0.00219176 0)
(-0.172389 -0.0324624 0)
(-0.165062 -0.0621807 0)
(-0.150434 -0.0884727 0)
(-0.128731 -0.107925 0)
(-0.101151 -0.116983 0)
(-0.0701581 -0.112706 0)
(-0.0395517 -0.0937859 0)
(-0.0147319 -0.0615771 0)
(-0.00228444 -0.0208242 0)
(-0.00245084 0.0295894 0)
(-0.0133086 0.0739957 0)
(-0.0331648 0.103735 0)
(-0.057165 0.120327 0)
(-0.0824049 0.125747 0)
(-0.107237 0.121793 0)
(-0.130448 0.109873 0)
(-0.151084 0.0910272 0)
(-0.168314 0.0660785 0)
(-0.181306 0.0358569 0)
(-0.18915 0.00145627 0)
(-0.190845 -0.0355065 0)
(-0.185373 -0.0726581 0)
(-0.171878 -0.106701 0)
(-0.150024 -0.133418 0)
(-0.120501 -0.148004 0)
(-0.0855538 -0.145915 0)
(-0.0493971 -0.124272 0)
(-0.0188883 -0.0835753 0)
(-0.00305472 -0.0291792 0)
(-0.00267735 0.0368847 0)
(-0.0144117 0.0910234 0)
(-0.0356334 0.126414 0)
(-0.060926 0.145569 0)
(-0.0871607 0.151385 0)
(-0.112721 0.146357 0)
(-0.136544 0.132336 0)
(-0.157883 0.110581 0)
(-0.176118 0.0819613 0)
(-0.190586 0.0472317 0)
(-0.200458 0.00734461 0)
(-0.204669 -0.0362207 0)
(-0.201942 -0.081114 0)
(-0.190921 -0.123795 0)
(-0.170537 -0.159334 0)
(-0.140628 -0.181542 0)
(-0.102766 -0.183777 0)
(-0.0611759 -0.160698 0)
(-0.0242182 -0.110938 0)
(-0.00413405 -0.0399698 0)
(-0.00292927 0.0447549 0)
(-0.015515 0.109187 0)
(-0.037844 0.150218 0)
(-0.063831 0.171606 0)
(-0.0901392 0.177435 0)
(-0.115273 0.171077 0)
(-0.138436 0.154927 0)
(-0.159202 0.130498 0)
(-0.177286 0.0986905 0)
(-0.192328 0.0601227 0)
(-0.203721 0.0154904 0)
(-0.210493 -0.0340417 0)
(-0.211237 -0.0863975 0)
(-0.204157 -0.138093 0)
(-0.18735 -0.183756 0)
(-0.159464 -0.215883 0)
(-0.12077 -0.225333 0)
(-0.0747567 -0.203196 0)
(-0.0309723 -0.144609 0)
(-0.00565451 -0.0539345 0)
(-0.00329398 0.0532647 0)
(-0.0168712 0.128408 0)
(-0.0401151 0.174701 0)
(-0.0660566 0.197573 0)
(-0.0911914 0.202684 0)
(-0.114298 0.194519 0)
(-0.135003 0.17612 0)
(-0.153351 0.14929 0)
(-0.169526 0.114954 0)
(-0.183614 0.0735471 0)
(-0.195403 0.0254147 0)
(-0.204217 -0.0287649 0)
(-0.208748 -0.0874694 0)
(-0.206954 -0.147681 0)
(-0.19616 -0.204077 0)
(-0.173581 -0.24824 0)
(-0.137485 -0.268431 0)
(-0.0894897 -0.251043 0)
(-0.0393688 -0.18534 0)
(-0.00780968 -0.0720115 0)
(-0.003958 0.0627033 0)
(-0.0189812 0.14881 0)
(-0.0430503 0.199378 0)
(-0.0679809 0.22233 0)
(-0.0902367 0.225488 0)
(-0.109147 0.21472 0)
(-0.124997 0.193807 0)
(-0.138472 0.164856 0)
(-0.15036 0.128798 0)
(-0.16132 0.0858589 0)
(-0.171695 0.0359788 0)
(-0.181322 -0.0207725 0)
(-0.18929 -0.0836831 0)
(-0.19366 -0.150664 0)
(-0.191281 -0.217149 0)
(-0.177957 -0.274633 0)
(-0.149377 -0.309284 0)
(-0.103856 -0.302048 0)
(-0.0495004 -0.233311 0)
(-0.0108827 -0.095381 0)
(-0.00529157 0.0738093 0)
(-0.0227311 0.170835 0)
(-0.04756 0.223655 0)
(-0.0700267 0.244297 0)
(-0.0869674 0.2436 0)
(-0.0987635 0.229078 0)
(-0.106694 0.205259 0)
(-0.11227 0.17449 0)
(-0.116985 0.137662 0)
(-0.122138 0.0947649 0)
(-0.128715 0.0453341 0)
(-0.137231 -0.0112021 0)
(-0.147466 -0.0750956 0)
(-0.158043 -0.145587 0)
(-0.165907 -0.219679 0)
(-0.165917 -0.290049 0)
(-0.151048 -0.342147 0)
(-0.114934 -0.351768 0)
(-0.0610818 -0.287451 0)
(-0.0152499 -0.125461 0)
(-0.00797697 0.0881432 0)
(-0.0295052 0.195288 0)
(-0.0545983 0.246523 0)
(-0.0719746 0.261074 0)
(-0.0798943 0.253891 0)
(-0.0806383 0.234221 0)
(-0.0768945 0.207139 0)
(-0.0711503 0.175023 0)
(-0.0656125 0.138589 0)
(-0.062166 0.097553 0)
(-0.062382 0.0510896 0)
(-0.067477 -0.00192975 0)
(-0.0780981 -0.0626867 0)
(-0.0938709 -0.131929 0)
(-0.112626 -0.208916 0)
(-0.129288 -0.289035 0)
(-0.134833 -0.359386 0)
(-0.11757 -0.392738 0)
(-0.0727873 -0.344319 0)
(-0.0212323 -0.163733 0)
(-0.0130919 0.108702 0)
(-0.0409357 0.222981 0)
(-0.063895 0.265681 0)
(-0.0708608 0.268663 0)
(-0.0639119 0.251893 0)
(-0.0484129 0.225894 0)
(-0.028778 0.195681 0)
(-0.00840931 0.1632 0)
(0.00997648 0.128727 0)
(0.0241705 0.0916487 0)
(0.0322817 0.0508411 0)
(0.0325858 0.00481468 0)
(0.02364 -0.0482637 0)
(0.00459057 -0.11045 0)
(-0.0240468 -0.183485 0)
(-0.0587403 -0.266769 0)
(-0.0903933 -0.352147 0)
(-0.103073 -0.413977 0)
(-0.0807146 -0.396638 0)
(-0.0284197 -0.211557 0)
(-0.021664 0.141181 0)
(-0.0569732 0.252934 0)
(-0.0695146 0.274852 0)
(-0.0554059 0.259547 0)
(-0.0249336 0.230921 0)
(0.0127008 0.198883 0)
(0.0517712 0.16711 0)
(0.0885823 0.136386 0)
(0.120556 0.106205 0)
(0.145714 0.0755495 0)
(0.16231 0.0431043 0)
(0.168559 0.00729875 0)
(0.162586 -0.0338714 0)
(0.142472 -0.0831093 0)
(0.106717 -0.14404 0)
(0.0558246 -0.220385 0)
(-0.00417002 -0.311625 0)
(-0.0572779 -0.400846 0)
(-0.0756035 -0.431126 0)
(-0.033724 -0.270001 0)
(-0.0313217 0.194412 0)
(-0.0677071 0.276128 0)
(-0.0466091 0.257653 0)
(0.00672572 0.219726 0)
(0.0698583 0.181691 0)
(0.132597 0.147982 0)
(0.1904 0.119121 0)
(0.240937 0.0941148 0)
(0.282902 0.0715583 0)
(0.315354 0.0500905 0)
(0.337307 0.0284247 0)
(0.347446 0.00523672 0)
(0.344034 -0.0210855 0)
(0.324659 -0.0529245 0)
(0.28618 -0.0942462 0)
(0.225428 -0.151444 0)
(0.141862 -0.232286 0)
(0.0430176 -0.336369 0)
(-0.0376317 -0.423302 0)
(-0.0258656 -0.331218 0)
(-0.0112812 0.253242 0)
(-0.0157046 0.259539 0)
(0.0823424 0.190807 0)
(0.190125 0.139655 0)
(0.282668 0.103903 0)
(0.359959 0.0779337 0)
(0.423878 0.0587162 0)
(0.475681 0.0439709 0)
(0.516368 0.0319244 0)
(0.546578 0.0212982 0)
(0.56643 0.0111458 0)
(0.575438 0.000673263 0)
(0.572505 -0.010929 0)
(0.555532 -0.0250254 0)
(0.520976 -0.0440837 0)
(0.463153 -0.0733869 0)
(0.373539 -0.123947 0)
(0.240651 -0.212096 0)
(0.0837483 -0.332253 0)
(0.0374299 -0.33809 0)
(0.280311 0.14148 0)
(0.358609 0.123737 0)
(0.505912 0.0782817 0)
(0.619454 0.0493162 0)
(0.692981 0.032031 0)
(0.743459 0.0212082 0)
(0.780184 0.0142536 0)
(0.807186 0.00962067 0)
(0.826676 0.00630494 0)
(0.839953 0.00368193 0)
(0.84764 0.0013632 0)
(0.849853 -0.000912767 0)
(0.846204 -0.00332744 0)
(0.835715 -0.00626432 0)
(0.816466 -0.0103558 0)
(0.784256 -0.0171794 0)
(0.729498 -0.0310253 0)
(0.625679 -0.0622061 0)
(0.448736 -0.123239 0)
(0.324034 -0.155198 0)
)
;

boundaryField
{
    movingWall
    {
        type            fixedValue;
        value           uniform (1 0 0);
    }
    fixedWalls
    {
        type            noSlip;
    }
    frontAndBack
    {
        type            empty;
    }
}


// ************************************************************************* //
