/*--------------------------------*- C++ -*----------------------------------*\
| =========                 |                                                 |
| \\      /  F ield         | OpenFOAM: The Open Source CFD Toolbox           |
|  \\    /   O peration     | Version:  5.0                                   |
|   \\  /    A nd           | Web:      www.OpenFOAM.org                      |
|    \\/     M anipulation  |                                                 |
\*---------------------------------------------------------------------------*/
FoamFile
{
    version     2.0;
    format      ascii;
    class       volScalarField;
    location    "0.5";
    object      p;
}
// * * * * * * * * * * * * * * * * * * * * * * * * * * * * * * * * * * * * * //

dimensions      [0 2 -2 0 0 0 0];

internalField   nonuniform List<scalar> 
400
(
1.51344e-08
-0.000190368
-0.000308822
-0.00032411
-0.000219986
8.6416e-06
0.000364956
0.000853208
0.00147437
0.00221769
0.00305163
0.00391972
0.00473222
0.00538676
0.0057913
0.00589967
0.00573975
0.00541523
0.00508131
0.00490013
0.00018986
-7.48479e-06
-8.64431e-05
-6.04253e-05
6.33158e-05
0.000288665
0.000620412
0.00106351
0.00161952
0.00227932
0.00301494
0.00378421
0.00450419
0.005086
0.00544911
0.00555409
0.00542801
0.00516442
0.00489122
0.00472199
0.000305189
4.96754e-05
-3.13702e-05
6.70454e-06
0.000132623
0.000346034
0.000652317
0.00105926
0.00157337
0.00219265
0.00289798
0.00364649
0.00436217
0.00494939
0.00531592
0.00541057
0.00525553
0.00494963
0.00462738
0.00438758
0.000272736
-5.43048e-05
-0.000155737
-0.00012324
-9.19309e-06
0.000181897
0.000456376
0.000826512
0.00130664
0.00190543
0.00261533
0.00339491
0.00417023
0.00482754
0.00524596
0.00534478
0.00513164
0.0047172
0.00426753
0.00390706
1.91985e-05
-0.000371286
-0.000497389
-0.000481103
-0.000391751
-0.000236627
-7.68868e-06
0.000312691
0.00074847
0.00132218
0.00204181
0.00287909
0.00376185
0.00455489
0.00509397
0.00524523
0.00498078
0.00441762
0.00377221
0.00322747
-0.000512704
-0.000955888
-0.00110971
-0.00112116
-0.00107314
-0.00097524
-0.000818286
-0.000580161
-0.000227082
0.00028088
0.000976086
0.00185656
0.00287578
0.00388223
0.00465639
0.00497478
0.00472783
0.00400821
0.0030855
0.00223845
-0.00136437
-0.00185044
-0.00203696
-0.00209178
-0.00210959
-0.00210386
-0.00206771
-0.00197913
-0.00179864
-0.00146831
-0.000919039
-9.80946e-05
0.00102493
0.00231268
0.00349994
0.00422583
0.0042064
0.0034212
0.00214835
0.000798918
-0.00256271
-0.00308291
-0.00330984
-0.00342918
-0.00354775
-0.00368746
-0.00385156
-0.0040292
-0.00418762
-0.00425847
-0.00411991
-0.00360266
-0.00258614
-0.00103982
0.000774671
0.00232543
0.00300905
0.00249405
0.000903115
-0.0012586
-0.00411813
-0.0046645
-0.00494123
-0.0051501
-0.00541277
-0.00576768
-0.0062415
-0.00685377
-0.00760193
-0.00842753
-0.00916013
-0.00947622
-0.00898097
-0.00740796
-0.00484501
-0.00193176
0.000281751
0.000824017
-0.000739927
-0.00409659
-0.00602138
-0.00658622
-0.00691975
-0.00723971
-0.00768786
-0.00833018
-0.00923381
-0.010474
-0.0121106
-0.0141252
-0.0163085
-0.018144
-0.0188525
-0.0178197
-0.0146935
-0.0100242
-0.00525846
-0.00234039
-0.00299269
-0.00774524
-0.00824213
-0.00881766
-0.00920464
-0.00963932
-0.0102918
-0.0112672
-0.0126891
-0.0147114
-0.0174858
-0.0210603
-0.0252003
-0.0292098
-0.0319372
-0.032108
-0.0289648
-0.0226451
-0.014628
-0.00785838
-0.00617499
-0.011755
-0.010733
-0.0113112
-0.0117256
-0.0122397
-0.0130643
-0.0143534
-0.0162942
-0.0191272
-0.0231047
-0.0283499
-0.0346128
-0.0410344
-0.0461323
-0.0481078
-0.0456951
-0.0384428
-0.0273538
-0.0158756
-0.0102349
-0.0147218
-0.0134437
-0.0140147
-0.0143908
-0.0148855
-0.0157724
-0.0172594
-0.0195918
-0.0230828
-0.0280639
-0.0347124
-0.0427624
-0.0512307
-0.0584128
-0.0622623
-0.0610714
-0.0538624
-0.0407975
-0.0249085
-0.0139672
-0.0144326
-0.0163505
-0.0168958
-0.0171028
-0.0173927
-0.0181414
-0.0196124
-0.0220905
-0.0259297
-0.0314983
-0.0389859
-0.0481071
-0.0578101
-0.0662996
-0.0714949
-0.0714469
-0.064888
-0.0511139
-0.0319054
-0.015001
-0.00890096
-0.0195125
-0.0199783
-0.0197768
-0.0195715
-0.0199038
-0.0210843
-0.0234088
-0.027233
-0.0329197
-0.040629
-0.050056
-0.0601197
-0.0690242
-0.0746789
-0.0753187
-0.0692532
-0.0552585
-0.0335913
-0.0107349
0.00326775
-0.0231905
-0.0233996
-0.0223508
-0.0212461
-0.0208495
-0.0214737
-0.0233861
-0.0269048
-0.0323666
-0.039872
-0.0490629
-0.0588741
-0.0675521
-0.0730146
-0.0733819
-0.0669014
-0.051906
-0.0274346
0.00155106
0.0252086
-0.0281616
-0.0274983
-0.0247651
-0.0222661
-0.0208733
-0.0207671
-0.0221271
-0.0252269
-0.030324
-0.0374582
-0.046214
-0.0555093
-0.0635904
-0.0682768
-0.0673947
-0.0587636
-0.0403162
-0.0105925
0.0273485
0.0665234
-0.0366767
-0.0329436
-0.0270452
-0.0226831
-0.0201481
-0.0192758
-0.0201026
-0.0228181
-0.0275977
-0.0343938
-0.042714
-0.0514116
-0.0586549
-0.0619952
-0.0586961
-0.0455944
-0.0196425
0.0217485
0.0767632
0.146435
-0.0547846
-0.0405959
-0.0290298
-0.0219832
-0.0182116
-0.0167261
-0.0172571
-0.0198381
-0.0245109
-0.0311073
-0.039047
-0.0471049
-0.053362
-0.0550519
-0.0486253
-0.0294419
0.0078282
0.0696585
0.158937
0.27944
-0.119519
-0.044781
-0.0193944
-0.0129644
-0.0104979
-0.00977852
-0.0110467
-0.014351
-0.0195734
-0.0264429
-0.0343462
-0.0420235
-0.0475377
-0.0479982
-0.0397972
-0.0167099
0.0297742
0.114169
0.24906
0.442693
)
;

boundaryField
{
    movingWall
    {
        type            zeroGradient;
    }
    fixedWalls
    {
        type            zeroGradient;
    }
    frontAndBack
    {
        type            empty;
    }
}


// ************************************************************************* //
