/*--------------------------------*- C++ -*----------------------------------*\
| =========                 |                                                 |
| \\      /  F ield         | OpenFOAM: The Open Source CFD Toolbox           |
|  \\    /   O peration     | Version:  5.0                                   |
|   \\  /    A nd           | Web:      www.OpenFOAM.org                      |
|    \\/     M anipulation  |                                                 |
\*---------------------------------------------------------------------------*/
FoamFile
{
    version     2.0;
    format      ascii;
    class       surfaceScalarField;
    location    "0.5";
    object      phi;
}
// * * * * * * * * * * * * * * * * * * * * * * * * * * * * * * * * * * * * * //

dimensions      [0 3 -1 0 0 0 0];

internalField   nonuniform List<scalar> 
760
(
-4.9609e-09
4.9599e-09
-5.4352e-08
4.93913e-08
-1.37585e-07
8.32333e-08
-2.38085e-07
1.00501e-07
-3.45312e-07
1.07228e-07
-4.52799e-07
1.07487e-07
-5.55313e-07
1.02513e-07
-6.46748e-07
9.14355e-08
-7.19004e-07
7.2256e-08
-7.62074e-07
4.30699e-08
-7.6564e-07
3.56668e-09
-7.20777e-07
-4.48636e-08
-6.25549e-07
-9.52275e-08
-4.87638e-07
-1.37911e-07
-3.26314e-07
-1.61323e-07
-1.70003e-07
-1.5631e-07
-4.88036e-08
-1.212e-07
1.6384e-08
-6.51876e-08
2.43038e-08
-7.91953e-09
2.43039e-08
-5.3623e-08
5.85831e-08
-2.0008e-07
1.95849e-07
-4.08531e-07
2.91684e-07
-6.51611e-07
3.4358e-07
-9.08597e-07
3.64214e-07
-1.16379e-06
3.62676e-07
-1.40307e-06
3.41802e-07
-1.61099e-06
2.99349e-07
-1.76922e-06
2.30485e-07
-1.85716e-06
1.31011e-07
-1.85595e-06
2.36181e-09
-1.74976e-06
-1.51059e-07
-1.53758e-06
-3.07406e-07
-1.23609e-06
-4.39397e-07
-8.83209e-07
-5.14204e-07
-5.33791e-07
-5.05729e-07
-2.46389e-07
-4.08602e-07
-6.37262e-08
-2.47851e-07
5.37889e-09
-7.70246e-08
2.96827e-08
-1.01312e-07
1.59896e-07
-3.33163e-07
4.27702e-07
-6.44541e-07
6.03061e-07
-9.98731e-07
6.97771e-07
-1.36896e-06
7.34444e-07
-1.73422e-06
7.27933e-07
-2.07503e-06
6.82611e-07
-2.37018e-06
5.94496e-07
-2.59519e-06
4.555e-07
-2.72311e-06
2.58927e-07
-2.72799e-06
7.2425e-09
-2.58965e-06
-2.89399e-07
-2.3033e-06
-5.93748e-07
-1.88731e-06
-8.55386e-07
-1.38879e-06
-1.01273e-06
-8.80815e-07
-1.0137e-06
-4.46621e-07
-8.42796e-07
-1.51833e-07
-5.42639e-07
-1.59897e-08
-2.12868e-07
1.36926e-08
-1.39286e-07
2.99182e-07
-4.43315e-07
7.31731e-07
-8.40929e-07
1.00068e-06
-1.28657e-06
1.14341e-06
-1.7495e-06
1.19738e-06
-2.20648e-06
1.18491e-06
-2.63606e-06
1.11219e-06
-3.01463e-06
9.73063e-07
-3.31425e-06
7.55129e-07
-3.50275e-06
4.47423e-07
-3.54583e-06
5.03293e-08
-3.41399e-06
-4.21243e-07
-3.09036e-06
-9.17381e-07
-2.58541e-06
-1.36033e-06
-1.94808e-06
-1.65006e-06
-1.26891e-06
-1.69288e-06
-6.64224e-07
-1.44748e-06
-2.37197e-07
-9.69666e-07
-3.01149e-08
-4.1995e-07
-1.64224e-08
-1.69061e-07
4.68243e-07
-5.32315e-07
1.09499e-06
-1.002e-06
1.47036e-06
-1.52536e-06
1.66678e-06
-2.06975e-06
1.74177e-06
-2.61244e-06
1.72759e-06
-3.13326e-06
1.63301e-06
-3.60936e-06
1.44916e-06
-4.01156e-06
1.15733e-06
-4.30244e-06
7.38301e-07
-4.43665e-06
1.84542e-07
-4.36706e-06
-4.90834e-07
-4.05343e-06
-1.231e-06
-3.4852e-06
-1.92857e-06
-2.70228e-06
-2.43298e-06
-1.81041e-06
-2.58474e-06
-9.71521e-07
-2.28638e-06
-3.53018e-07
-1.58817e-06
-4.46526e-08
-7.28315e-07
-6.10748e-08
-1.92006e-07
6.60249e-07
-6.02643e-07
1.50562e-06
-1.13198e-06
1.99969e-06
-1.72258e-06
2.25738e-06
-2.34216e-06
2.36135e-06
-2.97134e-06
2.35677e-06
-3.59455e-06
2.25623e-06
-4.19302e-06
2.04763e-06
-4.73873e-06
1.70303e-06
-5.18915e-06
1.18872e-06
-5.48412e-06
4.79516e-07
-5.55193e-06
-4.23024e-07
-5.3148e-06
-1.46813e-06
-4.72576e-06
-2.51761e-06
-3.79885e-06
-3.3599e-06
-2.64339e-06
-3.74019e-06
-1.4729e-06
-3.45687e-06
-5.54351e-07
-2.50672e-06
-7.42553e-08
-1.20841e-06
-1.3533e-07
-2.08609e-07
8.68858e-07
-6.55272e-07
1.95228e-06
-1.23225e-06
2.57667e-06
-1.88003e-06
2.90516e-06
-2.56899e-06
3.05031e-06
-3.2858e-06
3.07358e-06
-4.02279e-06
2.99322e-06
-4.76864e-06
2.79348e-06
-5.49912e-06
2.43351e-06
-6.16755e-06
1.85715e-06
-6.69631e-06
1.00828e-06
-6.98546e-06
-1.33871e-07
-6.90828e-06
-1.54531e-06
-6.36964e-06
-3.05625e-06
-5.33571e-06
-4.39383e-06
-3.89213e-06
-5.18378e-06
-2.28691e-06
-5.06209e-06
-9.13929e-07
-3.8797e-06
-1.38874e-07
-1.98347e-06
-2.74205e-07
-2.18657e-07
1.08751e-06
-6.89461e-07
2.42309e-06
-1.30072e-06
3.18793e-06
-1.99288e-06
3.59732e-06
-2.74068e-06
3.79811e-06
-3.53891e-06
3.87181e-06
-4.39019e-06
3.8445e-06
-5.29328e-06
3.69656e-06
-6.23e-06
3.37024e-06
-7.15124e-06
2.77839e-06
-7.96598e-06
1.82302e-06
-8.53488e-06
4.35026e-07
-8.70446e-06
-1.37573e-06
-8.31688e-06
-3.44384e-06
-7.27444e-06
-5.43627e-06
-5.59706e-06
-6.86116e-06
-3.51088e-06
-7.14826e-06
-1.5193e-06
-5.87128e-06
-2.66665e-07
-3.2361e-06
-5.4087e-07
-2.21647e-07
1.30916e-06
-7.03529e-07
2.90497e-06
-1.33284e-06
3.81724e-06
-2.05084e-06
4.31532e-06
-2.83703e-06
4.58429e-06
-3.69458e-06
4.72936e-06
-4.63681e-06
4.78672e-06
-5.67291e-06
4.73267e-06
-6.79168e-06
4.489e-06
-7.94412e-06
3.93084e-06
-9.03082e-06
2.90972e-06
-9.89883e-06
1.30303e-06
-1.03623e-05
-9.12305e-07
-1.02366e-05
-3.56946e-06
-9.35251e-06
-6.32038e-06
-7.62036e-06
-8.59331e-06
-5.15189e-06
-9.61674e-06
-2.4572e-06
-8.56597e-06
-5.02675e-07
-5.19063e-06
-1.04354e-06
-2.17578e-07
1.52674e-06
-6.96718e-07
3.38411e-06
-1.32453e-06
4.44505e-06
-2.04223e-06
5.03303e-06
-2.83253e-06
5.37459e-06
-3.70491e-06
5.60174e-06
-4.68067e-06
5.76249e-06
-5.77697e-06
5.82897e-06
-6.98891e-06
5.70095e-06
-8.2719e-06
5.21382e-06
-9.53136e-06
4.16918e-06
-1.06285e-05
2.4002e-06
-1.13677e-05
-1.73156e-07
-1.15909e-05
-3.34622e-06
-1.10645e-05
-6.84682e-06
-9.57509e-06
-1.00827e-05
-7.0282e-06
-1.21636e-05
-3.75689e-06
-1.18373e-05
-9.16312e-07
-8.0312e-06
-1.95986e-06
-2.08127e-07
1.73487e-06
-6.72072e-07
3.84805e-06
-1.27688e-06
5.04986e-06
-1.96096e-06
5.71711e-06
-2.70697e-06
6.1206e-06
-3.52639e-06
6.42115e-06
-4.44324e-06
6.67934e-06
-5.47788e-06
6.86362e-06
-6.63068e-06
6.85374e-06
-7.86851e-06
6.45165e-06
-9.11995e-06
5.42063e-06
-1.028e-05
3.5602e-06
-1.12324e-05
7.79316e-07
-1.18025e-05
-2.77613e-06
-1.17887e-05
-6.86061e-06
-1.08721e-05
-1.09993e-05
-8.71352e-06
-1.43222e-05
-5.28187e-06
-1.52689e-05
-1.57602e-06
-1.17371e-05
-3.53588e-06
-1.98209e-07
1.93307e-06
-6.40128e-07
4.28997e-06
-1.20208e-06
5.61181e-06
-1.81549e-06
6.33052e-06
-2.45963e-06
6.76474e-06
-3.14344e-06
7.10496e-06
-3.88833e-06
7.42423e-06
-4.71396e-06
7.68925e-06
-5.62689e-06
7.76667e-06
-6.61415e-06
7.43891e-06
-7.64445e-06
6.45092e-06
-8.6757e-06
4.59145e-06
-9.66805e-06
1.77167e-06
-1.05164e-05
-1.9278e-06
-1.10592e-05
-6.31784e-06
-1.09458e-05
-1.11127e-05
-9.64006e-06
-1.56279e-05
-6.66329e-06
-1.82457e-05
-2.46281e-06
-1.59375e-05
-5.99869e-06
-1.98053e-07
2.13113e-06
-6.23071e-07
4.71499e-06
-1.12907e-06
6.11781e-06
-1.63672e-06
6.83817e-06
-2.12136e-06
7.24938e-06
-2.58803e-06
7.57163e-06
-3.05336e-06
7.88957e-06
-3.53573e-06
8.17162e-06
-4.05133e-06
8.28226e-06
-4.6153e-06
8.00289e-06
-5.2474e-06
7.08301e-06
-5.97496e-06
5.31901e-06
-6.83282e-06
2.62954e-06
-7.81429e-06
-9.4633e-07
-8.81732e-06
-5.3148e-06
-9.53986e-06
-1.03902e-05
-9.35856e-06
-1.58092e-05
-7.41142e-06
-2.01928e-05
-3.38583e-06
-1.99631e-05
-9.38452e-06
-2.26427e-07
2.35755e-06
-6.59462e-07
5.14802e-06
-1.10751e-06
6.56586e-06
-1.48065e-06
7.21131e-06
-1.75676e-06
7.52549e-06
-1.94153e-06
7.7564e-06
-2.04968e-06
7.99771e-06
-2.10147e-06
8.22341e-06
-2.12717e-06
8.30797e-06
-2.17327e-06
8.04899e-06
-2.31321e-06
7.22295e-06
-2.63456e-06
5.64036e-06
-3.22959e-06
3.22457e-06
-4.18099e-06
5.07774e-09
-5.44893e-06
-4.04687e-06
-6.83748e-06
-9.00162e-06
-7.76953e-06
-1.48772e-05
-7.18049e-06
-2.07819e-05
-4.03434e-06
-2.31093e-05
-1.34189e-05
-3.16935e-07
2.67449e-06
-8.10931e-07
5.64202e-06
-1.20906e-06
6.96398e-06
-1.42337e-06
7.42562e-06
-1.45244e-06
7.55456e-06
-1.31374e-06
7.6177e-06
-1.02691e-06
7.71089e-06
-6.18556e-07
7.81505e-06
-1.36408e-07
7.82582e-06
3.38734e-07
7.57385e-06
7.01766e-07
6.85992e-06
8.12512e-07
5.52962e-06
5.32323e-07
3.50476e-06
-2.34375e-07
7.71776e-07
-1.53774e-06
-2.7435e-06
-3.2913e-06
-7.24806e-06
-5.09399e-06
-1.30745e-05
-5.90601e-06
-1.99698e-05
-4.16337e-06
-2.48519e-05
-1.75822e-05
-5.32616e-07
3.20711e-06
-1.17407e-06
6.28347e-06
-1.52428e-06
7.3142e-06
-1.54389e-06
7.44523e-06
-1.28645e-06
7.29712e-06
-7.9633e-07
7.12758e-06
-1.04844e-07
7.01941e-06
7.50605e-07
6.9596e-06
1.7111e-06
6.86532e-06
2.68045e-06
6.6045e-06
3.51728e-06
6.02309e-06
4.05926e-06
4.98764e-06
4.14834e-06
3.41567e-06
3.66302e-06
1.2571e-06
2.52002e-06
-1.6005e-06
7.20003e-07
-5.44805e-06
-1.57991e-06
-1.07746e-05
-3.64311e-06
-1.79066e-05
-3.57381e-06
-2.49212e-05
-2.1156e-05
-1.00432e-06
4.21143e-06
-1.89378e-06
7.17293e-06
-2.12537e-06
7.54579e-06
-1.8396e-06
7.15946e-06
-1.19892e-06
6.65643e-06
-2.9264e-07
6.2213e-06
8.29397e-07
5.89737e-06
2.1232e-06
5.6658e-06
3.52496e-06
5.46355e-06
4.93494e-06
5.19452e-06
6.21286e-06
4.74518e-06
7.19312e-06
4.00738e-06
7.71087e-06
2.89791e-06
7.6326e-06
1.33537e-06
6.83989e-06
-8.07785e-07
5.24267e-06
-3.85083e-06
2.75784e-06
-8.28976e-06
-2.41457e-07
-1.49073e-05
-2.10136e-06
-2.30613e-05
-2.32574e-05
-2.03095e-06
6.24238e-06
-3.02752e-06
8.1695e-06
-2.67066e-06
7.18892e-06
-1.62389e-06
6.11269e-06
-2.54326e-07
5.28687e-06
1.29998e-06
4.667e-06
2.98775e-06
4.2096e-06
4.77479e-06
3.87876e-06
6.61531e-06
3.62304e-06
8.43631e-06
3.37352e-06
1.0127e-05
3.0545e-06
1.1546e-05
2.58841e-06
1.25331e-05
1.91077e-06
1.29287e-05
9.39729e-07
1.25519e-05
-4.3092e-07
1.12066e-05
-2.50556e-06
8.60295e-06
-5.6861e-06
4.66107e-06
-1.09655e-05
8.88108e-07
-1.92883e-05
-2.23693e-05
-3.70029e-06
9.94268e-06
-2.36127e-06
6.83048e-06
4.98568e-07
4.32908e-06
3.27656e-06
3.3347e-06
5.85057e-06
2.71285e-06
8.27449e-06
2.24308e-06
1.05817e-05
1.90239e-06
1.27956e-05
1.66484e-06
1.49264e-05
1.49223e-06
1.69563e-05
1.34367e-06
1.88284e-05
1.18235e-06
2.04471e-05
9.69763e-07
2.16782e-05
6.79622e-07
2.23292e-05
2.88734e-07
2.21883e-05
-2.90005e-07
2.0908e-05
-1.22527e-06
1.79954e-05
-2.77348e-06
1.28091e-05
-5.77918e-06
5.43892e-06
-1.19182e-05
-1.69304e-05
9.94268e-06
1.67732e-05
2.11022e-05
2.44369e-05
2.71498e-05
2.93929e-05
3.12953e-05
3.29601e-05
3.44523e-05
3.5796e-05
3.69784e-05
3.79481e-05
3.86278e-05
3.89165e-05
3.86265e-05
3.74012e-05
3.46277e-05
2.88486e-05
1.69304e-05
)
;

boundaryField
{
    movingWall
    {
        type            calculated;
        value           uniform 0;
    }
    fixedWalls
    {
        type            calculated;
        value           uniform 0;
    }
    frontAndBack
    {
        type            empty;
        value           nonuniform 0();
    }
}


// ************************************************************************* //
