/*--------------------------------*- C++ -*----------------------------------*\
| =========                 |                                                 |
| \\      /  F ield         | OpenFOAM: The Open Source CFD Toolbox           |
|  \\    /   O peration     | Version:  5.0                                   |
|   \\  /    A nd           | Web:      www.OpenFOAM.org                      |
|    \\/     M anipulation  |                                                 |
\*---------------------------------------------------------------------------*/
FoamFile
{
    version     2.0;
    format      ascii;
    class       volVectorField;
    location    "0.5";
    object      U;
}
// * * * * * * * * * * * * * * * * * * * * * * * * * * * * * * * * * * * * * //

dimensions      [0 1 -1 0 0 0 0];

internalField   nonuniform List<vector> 
400
(
(7.52565e-05 -8.48325e-05 0)
(-0.000396839 0.000261014 0)
(-0.00181465 0.000537793 0)
(-0.0037086 0.00067339 0)
(-0.00582085 0.000725735 0)
(-0.00799505 0.000735386 0)
(-0.0101214 0.000714856 0)
(-0.0120916 0.000656555 0)
(-0.0137648 0.000541702 0)
(-0.014957 0.000350641 0)
(-0.0154572 7.41622e-05 0)
(-0.0150611 -0.000279008 0)
(-0.0136465 -0.000659571 0)
(-0.0112633 -0.000987369 0)
(-0.00818327 -0.00116543 0)
(-0.004899 -0.00111574 0)
(-0.00202044 -0.000823062 0)
(-8.95972e-05 -0.0003644 0)
(0.000617464 9.4838e-05 0)
(0.00032635 0.000299306 0)
(-0.00030989 0.000407007 0)
(-0.00214411 0.0020133 0)
(-0.00583946 0.00319259 0)
(-0.0104911 0.00382206 0)
(-0.0155792 0.00407554 0)
(-0.0207715 0.00408091 0)
(-0.0257867 0.00387851 0)
(-0.0303377 0.00343916 0)
(-0.0340874 0.00269678 0)
(-0.0366392 0.00158979 0)
(-0.0375797 0.000108454 0)
(-0.0365376 -0.00165704 0)
(-0.0333181 -0.00348681 0)
(-0.0280618 -0.0050309 0)
(-0.021318 -0.00588439 0)
(-0.0140455 -0.00572998 0)
(-0.00744131 -0.00451073 0)
(-0.00259671 -0.00254455 0)
(-9.69481e-05 -0.000503704 0)
(0.000268253 0.000648035 0)
(-0.000700285 0.00201883 0)
(-0.00380199 0.00587261 0)
(-0.00944244 0.00849176 0)
(-0.0162923 0.00992026 0)
(-0.0236566 0.0104868 0)
(-0.0311097 0.0104223 0)
(-0.0382701 0.00979778 0)
(-0.0447399 0.00855312 0)
(-0.050063 0.00656297 0)
(-0.0537149 0.00372222 0)
(-0.0551443 4.43326e-05 0)
(-0.0538614 -0.00423412 0)
(-0.0495805 -0.0086187 0)
(-0.0424111 -0.0123317 0)
(-0.0329999 -0.0144727 0)
(-0.0225791 -0.0143162 0)
(-0.0127968 -0.0116972 0)
(-0.00526316 -0.00728655 0)
(-0.000948532 -0.00255023 0)
(0.000169917 0.000526748 0)
(-0.00100129 0.00446285 0)
(-0.00515468 0.0113117 0)
(-0.0124427 0.0156861 0)
(-0.0211162 0.0180352 0)
(-0.0303401 0.0189335 0)
(-0.0396495 0.018742 0)
(-0.0486275 0.0175642 0)
(-0.0568353 0.0153016 0)
(-0.0637611 0.0117573 0)
(-0.0687957 0.00676739 0)
(-0.0712536 0.000350882 0)
(-0.0704665 -0.00713567 0)
(-0.0659226 -0.0148971 0)
(-0.0575085 -0.0216481 0)
(-0.0457819 -0.0258273 0)
(-0.0321464 -0.0260688 0)
(-0.0187709 -0.0219015 0)
(-0.00804104 -0.0143422 0)
(-0.00162663 -0.00590105 0)
(0.000182754 6.76472e-05 0)
(-0.00122869 0.00757236 0)
(-0.00622853 0.0180383 0)
(-0.0148849 0.0244199 0)
(-0.0250916 0.0277814 0)
(-0.0359125 0.0290471 0)
(-0.0468899 0.0287506 0)
(-0.0576337 0.0270376 0)
(-0.0677316 0.0237623 0)
(-0.0766746 0.0186275 0)
(-0.0837972 0.0113561 0)
(-0.0882572 0.00189108 0)
(-0.0890984 -0.00938299 0)
(-0.0853808 -0.0214332 0)
(-0.0765087 -0.0324142 0)
(-0.0626936 -0.0398871 0)
(-0.0453492 -0.0414508 0)
(-0.027239 -0.0358889 0)
(-0.0119408 -0.0243798 0)
(-0.00244349 -0.0108117 0)
(0.000280352 -0.000619127 0)
(-0.00139776 0.0112066 0)
(-0.00706112 0.0258238 0)
(-0.0168294 0.0344599 0)
(-0.0283264 0.0389612 0)
(-0.0405633 0.0407065 0)
(-0.0531376 0.0404558 0)
(-0.0657491 0.0384175 0)
(-0.0780826 0.034388 0)
(-0.0896957 0.0279214 0)
(-0.0998979 0.0185269 0)
(-0.107661 0.00591522 0)
(-0.11163 -0.00967991 0)
(-0.110217 -0.0271283 0)
(-0.102044 -0.044028 0)
(-0.0866481 -0.0568175 0)
(-0.0651376 -0.0615004 0)
(-0.0407371 -0.0553276 0)
(-0.0185809 -0.0390469 0)
(-0.00399504 -0.0182281 0)
(0.000382228 -0.00166733 0)
(-0.00151378 0.0152356 0)
(-0.00766721 0.0344429 0)
(-0.0182986 0.0455737 0)
(-0.0308511 0.0513881 0)
(-0.0443316 0.053817 0)
(-0.0584398 0.0539112 0)
(-0.0730263 0.0519724 0)
(-0.0879443 0.0477295 0)
(-0.102885 0.0405211 0)
(-0.117176 0.0294978 0)
(-0.129595 0.0139055 0)
(-0.138298 -0.0064448 0)
(-0.140904 -0.0304859 0)
(-0.135028 -0.0554151 0)
(-0.119217 -0.0763589 0)
(-0.0937895 -0.0871387 0)
(-0.061874 -0.0823608 0)
(-0.0300271 -0.0609875 0)
(-0.00712528 -0.0300188 0)
(0.000378201 -0.00355116 0)
(-0.00157514 0.0195317 0)
(-0.00803944 0.0436663 0)
(-0.0192682 0.0575137 0)
(-0.0326027 0.0648447 0)
(-0.0470825 0.0682345 0)
(-0.0625434 0.0690963 0)
(-0.0790325 0.0678658 0)
(-0.0966255 0.0641968 0)
(-0.115204 0.0571324 0)
(-0.134167 0.0452916 0)
(-0.152119 0.0271959 0)
(-0.166679 0.00192168 0)
(-0.174752 -0.0298668 0)
(-0.173028 -0.0650303 0)
(-0.158852 -0.0974401 0)
(-0.131236 -0.118436 0)
(-0.0921743 -0.118869 0)
(-0.0484719 -0.0936138 0)
(-0.0130449 -0.0491882 0)
(8.02435e-05 -0.00721845 0)
(-0.00157824 0.023959 0)
(-0.00816107 0.0532463 0)
(-0.0196859 0.0699894 0)
(-0.033448 0.0790292 0)
(-0.0485325 0.0836693 0)
(-0.0649147 0.0857609 0)
(-0.0828457 0.0859186 0)
(-0.102634 0.0837132 0)
(-0.124365 0.077806 0)
(-0.147538 0.0661092 0)
(-0.170681 0.0461869 0)
(-0.191113 0.0161302 0)
(-0.205216 -0.0240671 0)
(-0.209146 -0.0710759 0)
(-0.199363 -0.117902 0)
(-0.173186 -0.153715 0)
(-0.130219 -0.1651 0)
(-0.0752542 -0.140103 0)
(-0.0235266 -0.0799413 0)
(-0.000942938 -0.0143646 0)
(-0.00152555 0.0283732 0)
(-0.00803234 0.062911 0)
(-0.0195188 0.0826438 0)
(-0.0332531 0.0935015 0)
(-0.0483436 0.0995885 0)
(-0.0648662 0.103264 0)
(-0.0832272 0.10536 0)
(-0.103914 0.105357 0)
(-0.127182 0.101463 0)
(-0.152655 0.0907699 0)
(-0.178946 0.0697817 0)
(-0.203446 0.0355834 0)
(-0.22257 -0.0125291 0)
(-0.232727 -0.0716664 0)
(-0.230084 -0.134322 0)
(-0.210336 -0.188703 0)
(-0.169811 -0.217846 0)
(-0.108832 -0.201147 0)
(-0.040696 -0.127173 0)
(-0.00363312 -0.027891 0)
(-0.00143746 0.0326426 0)
(-0.00771038 0.0723874 0)
(-0.0188274 0.0950588 0)
(-0.0319966 0.107663 0)
(-0.0462919 0.115165 0)
(-0.0618132 0.120483 0)
(-0.0790229 0.124693 0)
(-0.0984806 0.127181 0)
(-0.120539 0.125701 0)
(-0.144984 0.116553 0)
(-0.170723 0.0952999 0)
(-0.195742 0.0582111 0)
(-0.217452 0.00397986 0)
(-0.232991 -0.0650987 0)
(-0.238956 -0.142204 0)
(-0.230364 -0.216343 0)
(-0.200149 -0.269135 0)
(-0.142833 -0.271928 0)
(-0.0652976 -0.194062 0)
(-0.00947711 -0.0521362 0)
(-0.00136839 0.0366954 0)
(-0.00736054 0.0814633 0)
(-0.0178593 0.106804 0)
(-0.0299114 0.120795 0)
(-0.0424863 0.129318 0)
(-0.0556301 0.13588 0)
(-0.069757 0.141811 0)
(-0.0853917 0.146428 0)
(-0.102938 0.147127 0)
(-0.122429 0.13964 0)
(-0.143332 0.118929 0)
(-0.164626 0.0808094 0)
(-0.185155 0.0236727 0)
(-0.203595 -0.0507414 0)
(-0.217849 -0.137726 0)
(-0.22299 -0.228839 0)
(-0.209657 -0.307594 0)
(-0.16696 -0.340921 0)
(-0.0934062 -0.277147 0)
(-0.019659 -0.0919351 0)
(-0.0014307 0.0406042 0)
(-0.00731967 0.0900943 0)
(-0.0171447 0.117528 0)
(-0.0276128 0.132153 0)
(-0.0375532 0.140862 0)
(-0.046945 0.147758 0)
(-0.0561135 0.154417 0)
(-0.0655071 0.160157 0)
(-0.0755914 0.162216 0)
(-0.086752 0.156124 0)
(-0.0992248 0.136718 0)
(-0.113174 0.099785 0)
(-0.128961 0.0436557 0)
(-0.147073 -0.030575 0)
(-0.167153 -0.120538 0)
(-0.185316 -0.221887 0)
(-0.191646 -0.323466 0)
(-0.17154 -0.393566 0)
(-0.115732 -0.363944 0)
(-0.0330906 -0.150455 0)
(-0.00183725 0.0447206 0)
(-0.0081824 0.0985508 0)
(-0.0175842 0.127062 0)
(-0.026162 0.141088 0)
(-0.0326792 0.148706 0)
(-0.0371751 0.154601 0)
(-0.0399587 0.160567 0)
(-0.0414517 0.166011 0)
(-0.0422441 0.168267 0)
(-0.0431448 0.163054 0)
(-0.0452352 0.145547 0)
(-0.0498478 0.111773 0)
(-0.0586193 0.0601278 0)
(-0.0735565 -0.00887899 0)
(-0.0958055 -0.0946712 0)
(-0.123286 -0.197554 0)
(-0.147414 -0.313881 0)
(-0.152334 -0.419372 0)
(-0.123048 -0.438669 0)
(-0.0449784 -0.226656 0)
(-0.00299133 0.0499093 0)
(-0.0109502 0.107591 0)
(-0.0205381 0.135483 0)
(-0.0270328 0.147096 0)
(-0.0294494 0.151986 0)
(-0.0282148 0.155331 0)
(-0.0238017 0.159065 0)
(-0.0167103 0.162745 0)
(-0.0077197 0.164043 0)
(0.00197321 0.159196 0)
(0.0105014 0.143934 0)
(0.0155212 0.114773 0)
(0.0145293 0.0701289 0)
(0.00474928 0.00995548 0)
(-0.0159807 -0.0663843 0)
(-0.0474217 -0.16287 0)
(-0.0837613 -0.28354 0)
(-0.110939 -0.416058 0)
(-0.111842 -0.490039 0)
(-0.0490774 -0.313958 0)
(-0.0056929 0.0580248 0)
(-0.0173366 0.118621 0)
(-0.0279408 0.142988 0)
(-0.0319217 0.149694 0)
(-0.0293812 0.150024 0)
(-0.0216854 0.149337 0)
(-0.00968649 0.149505 0)
(0.00596145 0.15024 0)
(0.0242882 0.149679 0)
(0.0437334 0.1448 0)
(0.0619939 0.132055 0)
(0.0761484 0.108526 0)
(0.0830926 0.0725527 0)
(0.0798568 0.0233427 0)
(0.0639537 -0.0407895 0)
(0.0343507 -0.125632 0)
(-0.00681726 -0.240661 0)
(-0.0502853 -0.387238 0)
(-0.0831297 -0.512516 0)
(-0.041778 -0.400917 0)
(-0.0116348 0.0729334 0)
(-0.0303926 0.133747 0)
(-0.0421864 0.14961 0)
(-0.0415614 0.148176 0)
(-0.0317741 0.1421 0)
(-0.0159197 0.136212 0)
(0.00461263 0.131954 0)
(0.0289723 0.129072 0)
(0.0560983 0.126141 0)
(0.0843772 0.120913 0)
(0.111474 0.110713 0)
(0.134422 0.0931167 0)
(0.149943 0.0664029 0)
(0.155042 0.029115 0)
(0.146801 -0.0212464 0)
(0.123576 -0.0910192 0)
(0.0839257 -0.191548 0)
(0.0307547 -0.336275 0)
(-0.0358492 -0.499496 0)
(-0.0198906 -0.46793 0)
(-0.0245403 0.102367 0)
(-0.0548792 0.154446 0)
(-0.0611369 0.151908 0)
(-0.0452942 0.137339 0)
(-0.0199458 0.12337 0)
(0.00981716 0.112148 0)
(0.042481 0.103804 0)
(0.0773426 0.0977691 0)
(0.113657 0.0928889 0)
(0.150302 0.0875434 0)
(0.185483 0.0798785 0)
(0.216828 0.0680444 0)
(0.241215 0.0505271 0)
(0.255801 0.0256445 0)
(0.256381 -0.00925924 0)
(0.240962 -0.0599249 0)
(0.203368 -0.136505 0)
(0.143629 -0.260106 0)
(0.041324 -0.436602 0)
(0.0266553 -0.479649 0)
(-0.0584055 0.181745 0)
(-0.0722982 0.164068 0)
(-0.0194822 0.120427 0)
(0.0378383 0.0971495 0)
(0.0917101 0.0815622 0)
(0.141885 0.0696779 0)
(0.189161 0.0608435 0)
(0.234217 0.0545129 0)
(0.277424 0.0498127 0)
(0.318829 0.0456713 0)
(0.357609 0.0410074 0)
(0.392595 0.0346559 0)
(0.420977 0.0256747 0)
(0.440598 0.012794 0)
(0.445336 -0.00527992 0)
(0.433988 -0.0322801 0)
(0.392564 -0.0750923 0)
(0.322919 -0.153318 0)
(0.183845 -0.300785 0)
(0.127881 -0.388508 0)
(0.222868 0.131015 0)
(0.266879 0.108521 0)
(0.370274 0.0747 0)
(0.45598 0.053887 0)
(0.518729 0.0407799 0)
(0.56756 0.0316077 0)
(0.608227 0.0249986 0)
(0.643465 0.0202764 0)
(0.674648 0.016891 0)
(0.702738 0.014315 0)
(0.72758 0.0121069 0)
(0.74916 0.00980381 0)
(0.765139 0.00704245 0)
(0.775425 0.00338201 0)
(0.773489 -0.00160188 0)
(0.761012 -0.00836282 0)
(0.717399 -0.0201903 0)
(0.652455 -0.0398638 0)
(0.491477 -0.0879075 0)
(0.363134 -0.143442 0)
)
;

boundaryField
{
    movingWall
    {
        type            fixedValue;
        value           uniform (1 0 0);
    }
    fixedWalls
    {
        type            noSlip;
    }
    frontAndBack
    {
        type            empty;
    }
}


// ************************************************************************* //
